h 0.1 2 5 cbr 210 ------- 1 2.0 1.1 0 0
h 0.101 2 5 cbr 210 ------- 1 2.0 1.1 1 1
h 0.102 2 5 cbr 210 ------- 1 2.0 1.1 2 2
h 0.103 2 5 cbr 210 ------- 1 2.0 1.1 3 3
h 0.104 2 5 cbr 210 ------- 1 2.0 1.1 4 4
h 0.105 2 5 cbr 210 ------- 1 2.0 1.1 5 5
h 0.106 2 5 cbr 210 ------- 1 2.0 1.1 6 6
h 0.107 2 5 cbr 210 ------- 1 2.0 1.1 7 7
h 0.108 2 5 cbr 210 ------- 1 2.0 1.1 8 8
h 0.109 2 5 cbr 210 ------- 1 2.0 1.1 9 9
+ 0.11 2 5 cbr 210 ------- 1 2.0 1.1 0 0
- 0.11 2 5 cbr 210 ------- 1 2.0 1.1 0 0
h 0.11 2 5 cbr 210 ------- 1 2.0 1.1 10 10
+ 0.111 2 5 cbr 210 ------- 1 2.0 1.1 1 1
- 0.111 2 5 cbr 210 ------- 1 2.0 1.1 1 1
h 0.111 2 5 cbr 210 ------- 1 2.0 1.1 11 11
+ 0.112 2 5 cbr 210 ------- 1 2.0 1.1 2 2
- 0.112 2 5 cbr 210 ------- 1 2.0 1.1 2 2
h 0.112 2 5 cbr 210 ------- 1 2.0 1.1 12 12
+ 0.113 2 5 cbr 210 ------- 1 2.0 1.1 3 3
- 0.113 2 5 cbr 210 ------- 1 2.0 1.1 3 3
h 0.113 2 5 cbr 210 ------- 1 2.0 1.1 13 13
+ 0.114 2 5 cbr 210 ------- 1 2.0 1.1 4 4
- 0.114 2 5 cbr 210 ------- 1 2.0 1.1 4 4
h 0.114 2 5 cbr 210 ------- 1 2.0 1.1 14 14
+ 0.115 2 5 cbr 210 ------- 1 2.0 1.1 5 5
- 0.115 2 5 cbr 210 ------- 1 2.0 1.1 5 5
h 0.115 2 5 cbr 210 ------- 1 2.0 1.1 15 15
+ 0.116 2 5 cbr 210 ------- 1 2.0 1.1 6 6
- 0.116 2 5 cbr 210 ------- 1 2.0 1.1 6 6
h 0.116 2 5 cbr 210 ------- 1 2.0 1.1 16 16
+ 0.117 2 5 cbr 210 ------- 1 2.0 1.1 7 7
- 0.117 2 5 cbr 210 ------- 1 2.0 1.1 7 7
h 0.117 2 5 cbr 210 ------- 1 2.0 1.1 17 17
+ 0.118 2 5 cbr 210 ------- 1 2.0 1.1 8 8
- 0.118 2 5 cbr 210 ------- 1 2.0 1.1 8 8
h 0.118 2 5 cbr 210 ------- 1 2.0 1.1 18 18
+ 0.119 2 5 cbr 210 ------- 1 2.0 1.1 9 9
- 0.119 2 5 cbr 210 ------- 1 2.0 1.1 9 9
h 0.119 2 5 cbr 210 ------- 1 2.0 1.1 19 19
+ 0.12 2 5 cbr 210 ------- 1 2.0 1.1 10 10
- 0.12 2 5 cbr 210 ------- 1 2.0 1.1 10 10
h 0.12 2 5 cbr 210 ------- 1 2.0 1.1 20 20
r 0.120022 5 1 cbr 210 ------- 1 2.0 1.1 0 0
+ 0.121 2 5 cbr 210 ------- 1 2.0 1.1 11 11
- 0.121 2 5 cbr 210 ------- 1 2.0 1.1 11 11
h 0.121 2 5 cbr 210 ------- 1 2.0 1.1 21 21
r 0.121022 5 1 cbr 210 ------- 1 2.0 1.1 1 1
+ 0.122 2 5 cbr 210 ------- 1 2.0 1.1 12 12
- 0.122 2 5 cbr 210 ------- 1 2.0 1.1 12 12
h 0.122 2 5 cbr 210 ------- 1 2.0 1.1 22 22
r 0.122022 5 1 cbr 210 ------- 1 2.0 1.1 2 2
+ 0.123 2 5 cbr 210 ------- 1 2.0 1.1 13 13
- 0.123 2 5 cbr 210 ------- 1 2.0 1.1 13 13
h 0.123 2 5 cbr 210 ------- 1 2.0 1.1 23 23
r 0.123022 5 1 cbr 210 ------- 1 2.0 1.1 3 3
+ 0.124 2 5 cbr 210 ------- 1 2.0 1.1 14 14
- 0.124 2 5 cbr 210 ------- 1 2.0 1.1 14 14
h 0.124 2 5 cbr 210 ------- 1 2.0 1.1 24 24
r 0.124022 5 1 cbr 210 ------- 1 2.0 1.1 4 4
+ 0.125 2 5 cbr 210 ------- 1 2.0 1.1 15 15
- 0.125 2 5 cbr 210 ------- 1 2.0 1.1 15 15
h 0.125 2 5 cbr 210 ------- 1 2.0 1.1 25 25
r 0.125022 5 1 cbr 210 ------- 1 2.0 1.1 5 5
+ 0.126 2 5 cbr 210 ------- 1 2.0 1.1 16 16
- 0.126 2 5 cbr 210 ------- 1 2.0 1.1 16 16
h 0.126 2 5 cbr 210 ------- 1 2.0 1.1 26 26
r 0.126022 5 1 cbr 210 ------- 1 2.0 1.1 6 6
+ 0.127 2 5 cbr 210 ------- 1 2.0 1.1 17 17
- 0.127 2 5 cbr 210 ------- 1 2.0 1.1 17 17
h 0.127 2 5 cbr 210 ------- 1 2.0 1.1 27 27
r 0.127022 5 1 cbr 210 ------- 1 2.0 1.1 7 7
+ 0.128 2 5 cbr 210 ------- 1 2.0 1.1 18 18
- 0.128 2 5 cbr 210 ------- 1 2.0 1.1 18 18
h 0.128 2 5 cbr 210 ------- 1 2.0 1.1 28 28
r 0.128022 5 1 cbr 210 ------- 1 2.0 1.1 8 8
+ 0.129 2 5 cbr 210 ------- 1 2.0 1.1 19 19
- 0.129 2 5 cbr 210 ------- 1 2.0 1.1 19 19
h 0.129 2 5 cbr 210 ------- 1 2.0 1.1 29 29
r 0.129022 5 1 cbr 210 ------- 1 2.0 1.1 9 9
+ 0.13 2 5 cbr 210 ------- 1 2.0 1.1 20 20
- 0.13 2 5 cbr 210 ------- 1 2.0 1.1 20 20
h 0.13 2 5 cbr 210 ------- 1 2.0 1.1 30 30
r 0.130022 5 1 cbr 210 ------- 1 2.0 1.1 10 10
+ 0.131 2 5 cbr 210 ------- 1 2.0 1.1 21 21
- 0.131 2 5 cbr 210 ------- 1 2.0 1.1 21 21
h 0.131 2 5 cbr 210 ------- 1 2.0 1.1 31 31
r 0.131022 5 1 cbr 210 ------- 1 2.0 1.1 11 11
+ 0.132 2 5 cbr 210 ------- 1 2.0 1.1 22 22
- 0.132 2 5 cbr 210 ------- 1 2.0 1.1 22 22
h 0.132 2 5 cbr 210 ------- 1 2.0 1.1 32 32
r 0.132022 5 1 cbr 210 ------- 1 2.0 1.1 12 12
+ 0.133 2 5 cbr 210 ------- 1 2.0 1.1 23 23
- 0.133 2 5 cbr 210 ------- 1 2.0 1.1 23 23
h 0.133 2 5 cbr 210 ------- 1 2.0 1.1 33 33
r 0.133022 5 1 cbr 210 ------- 1 2.0 1.1 13 13
+ 0.134 2 5 cbr 210 ------- 1 2.0 1.1 24 24
- 0.134 2 5 cbr 210 ------- 1 2.0 1.1 24 24
h 0.134 2 5 cbr 210 ------- 1 2.0 1.1 34 34
r 0.134022 5 1 cbr 210 ------- 1 2.0 1.1 14 14
+ 0.135 2 5 cbr 210 ------- 1 2.0 1.1 25 25
- 0.135 2 5 cbr 210 ------- 1 2.0 1.1 25 25
h 0.135 2 5 cbr 210 ------- 1 2.0 1.1 35 35
r 0.135022 5 1 cbr 210 ------- 1 2.0 1.1 15 15
+ 0.136 2 5 cbr 210 ------- 1 2.0 1.1 26 26
- 0.136 2 5 cbr 210 ------- 1 2.0 1.1 26 26
h 0.136 2 5 cbr 210 ------- 1 2.0 1.1 36 36
r 0.136022 5 1 cbr 210 ------- 1 2.0 1.1 16 16
+ 0.137 2 5 cbr 210 ------- 1 2.0 1.1 27 27
- 0.137 2 5 cbr 210 ------- 1 2.0 1.1 27 27
h 0.137 2 5 cbr 210 ------- 1 2.0 1.1 37 37
r 0.137022 5 1 cbr 210 ------- 1 2.0 1.1 17 17
+ 0.138 2 5 cbr 210 ------- 1 2.0 1.1 28 28
- 0.138 2 5 cbr 210 ------- 1 2.0 1.1 28 28
h 0.138 2 5 cbr 210 ------- 1 2.0 1.1 38 38
r 0.138022 5 1 cbr 210 ------- 1 2.0 1.1 18 18
+ 0.139 2 5 cbr 210 ------- 1 2.0 1.1 29 29
- 0.139 2 5 cbr 210 ------- 1 2.0 1.1 29 29
h 0.139 2 5 cbr 210 ------- 1 2.0 1.1 39 39
r 0.139022 5 1 cbr 210 ------- 1 2.0 1.1 19 19
+ 0.14 2 5 cbr 210 ------- 1 2.0 1.1 30 30
- 0.14 2 5 cbr 210 ------- 1 2.0 1.1 30 30
h 0.14 2 5 cbr 210 ------- 1 2.0 1.1 40 40
r 0.140022 5 1 cbr 210 ------- 1 2.0 1.1 20 20
+ 0.141 2 5 cbr 210 ------- 1 2.0 1.1 31 31
- 0.141 2 5 cbr 210 ------- 1 2.0 1.1 31 31
h 0.141 2 5 cbr 210 ------- 1 2.0 1.1 41 41
r 0.141022 5 1 cbr 210 ------- 1 2.0 1.1 21 21
+ 0.142 2 5 cbr 210 ------- 1 2.0 1.1 32 32
- 0.142 2 5 cbr 210 ------- 1 2.0 1.1 32 32
h 0.142 2 5 cbr 210 ------- 1 2.0 1.1 42 42
r 0.142022 5 1 cbr 210 ------- 1 2.0 1.1 22 22
+ 0.143 2 5 cbr 210 ------- 1 2.0 1.1 33 33
- 0.143 2 5 cbr 210 ------- 1 2.0 1.1 33 33
h 0.143 2 5 cbr 210 ------- 1 2.0 1.1 43 43
r 0.143022 5 1 cbr 210 ------- 1 2.0 1.1 23 23
+ 0.144 2 5 cbr 210 ------- 1 2.0 1.1 34 34
- 0.144 2 5 cbr 210 ------- 1 2.0 1.1 34 34
h 0.144 2 5 cbr 210 ------- 1 2.0 1.1 44 44
r 0.144022 5 1 cbr 210 ------- 1 2.0 1.1 24 24
+ 0.145 2 5 cbr 210 ------- 1 2.0 1.1 35 35
- 0.145 2 5 cbr 210 ------- 1 2.0 1.1 35 35
h 0.145 2 5 cbr 210 ------- 1 2.0 1.1 45 45
r 0.145022 5 1 cbr 210 ------- 1 2.0 1.1 25 25
+ 0.146 2 5 cbr 210 ------- 1 2.0 1.1 36 36
- 0.146 2 5 cbr 210 ------- 1 2.0 1.1 36 36
h 0.146 2 5 cbr 210 ------- 1 2.0 1.1 46 46
r 0.146022 5 1 cbr 210 ------- 1 2.0 1.1 26 26
+ 0.147 2 5 cbr 210 ------- 1 2.0 1.1 37 37
- 0.147 2 5 cbr 210 ------- 1 2.0 1.1 37 37
h 0.147 2 5 cbr 210 ------- 1 2.0 1.1 47 47
r 0.147022 5 1 cbr 210 ------- 1 2.0 1.1 27 27
+ 0.148 2 5 cbr 210 ------- 1 2.0 1.1 38 38
- 0.148 2 5 cbr 210 ------- 1 2.0 1.1 38 38
h 0.148 2 5 cbr 210 ------- 1 2.0 1.1 48 48
r 0.148022 5 1 cbr 210 ------- 1 2.0 1.1 28 28
+ 0.149 2 5 cbr 210 ------- 1 2.0 1.1 39 39
- 0.149 2 5 cbr 210 ------- 1 2.0 1.1 39 39
h 0.149 2 5 cbr 210 ------- 1 2.0 1.1 49 49
r 0.149022 5 1 cbr 210 ------- 1 2.0 1.1 29 29
+ 0.15 2 5 cbr 210 ------- 1 2.0 1.1 40 40
- 0.15 2 5 cbr 210 ------- 1 2.0 1.1 40 40
h 0.15 2 5 cbr 210 ------- 1 2.0 1.1 50 50
r 0.150022 5 1 cbr 210 ------- 1 2.0 1.1 30 30
+ 0.151 2 5 cbr 210 ------- 1 2.0 1.1 41 41
- 0.151 2 5 cbr 210 ------- 1 2.0 1.1 41 41
h 0.151 2 5 cbr 210 ------- 1 2.0 1.1 51 51
r 0.151022 5 1 cbr 210 ------- 1 2.0 1.1 31 31
+ 0.152 2 5 cbr 210 ------- 1 2.0 1.1 42 42
- 0.152 2 5 cbr 210 ------- 1 2.0 1.1 42 42
h 0.152 2 5 cbr 210 ------- 1 2.0 1.1 52 52
r 0.152022 5 1 cbr 210 ------- 1 2.0 1.1 32 32
+ 0.153 2 5 cbr 210 ------- 1 2.0 1.1 43 43
- 0.153 2 5 cbr 210 ------- 1 2.0 1.1 43 43
h 0.153 2 5 cbr 210 ------- 1 2.0 1.1 53 53
r 0.153022 5 1 cbr 210 ------- 1 2.0 1.1 33 33
+ 0.154 2 5 cbr 210 ------- 1 2.0 1.1 44 44
- 0.154 2 5 cbr 210 ------- 1 2.0 1.1 44 44
h 0.154 2 5 cbr 210 ------- 1 2.0 1.1 54 54
r 0.154022 5 1 cbr 210 ------- 1 2.0 1.1 34 34
+ 0.155 2 5 cbr 210 ------- 1 2.0 1.1 45 45
- 0.155 2 5 cbr 210 ------- 1 2.0 1.1 45 45
h 0.155 2 5 cbr 210 ------- 1 2.0 1.1 55 55
r 0.155022 5 1 cbr 210 ------- 1 2.0 1.1 35 35
+ 0.156 2 5 cbr 210 ------- 1 2.0 1.1 46 46
- 0.156 2 5 cbr 210 ------- 1 2.0 1.1 46 46
h 0.156 2 5 cbr 210 ------- 1 2.0 1.1 56 56
r 0.156022 5 1 cbr 210 ------- 1 2.0 1.1 36 36
+ 0.157 2 5 cbr 210 ------- 1 2.0 1.1 47 47
- 0.157 2 5 cbr 210 ------- 1 2.0 1.1 47 47
h 0.157 2 5 cbr 210 ------- 1 2.0 1.1 57 57
r 0.157022 5 1 cbr 210 ------- 1 2.0 1.1 37 37
+ 0.158 2 5 cbr 210 ------- 1 2.0 1.1 48 48
- 0.158 2 5 cbr 210 ------- 1 2.0 1.1 48 48
h 0.158 2 5 cbr 210 ------- 1 2.0 1.1 58 58
r 0.158022 5 1 cbr 210 ------- 1 2.0 1.1 38 38
+ 0.159 2 5 cbr 210 ------- 1 2.0 1.1 49 49
- 0.159 2 5 cbr 210 ------- 1 2.0 1.1 49 49
h 0.159 2 5 cbr 210 ------- 1 2.0 1.1 59 59
r 0.159022 5 1 cbr 210 ------- 1 2.0 1.1 39 39
+ 0.16 2 5 cbr 210 ------- 1 2.0 1.1 50 50
- 0.16 2 5 cbr 210 ------- 1 2.0 1.1 50 50
h 0.16 2 5 cbr 210 ------- 1 2.0 1.1 60 60
r 0.160022 5 1 cbr 210 ------- 1 2.0 1.1 40 40
+ 0.161 2 5 cbr 210 ------- 1 2.0 1.1 51 51
- 0.161 2 5 cbr 210 ------- 1 2.0 1.1 51 51
h 0.161 2 5 cbr 210 ------- 1 2.0 1.1 61 61
r 0.161022 5 1 cbr 210 ------- 1 2.0 1.1 41 41
+ 0.162 2 5 cbr 210 ------- 1 2.0 1.1 52 52
- 0.162 2 5 cbr 210 ------- 1 2.0 1.1 52 52
h 0.162 2 5 cbr 210 ------- 1 2.0 1.1 62 62
r 0.162022 5 1 cbr 210 ------- 1 2.0 1.1 42 42
+ 0.163 2 5 cbr 210 ------- 1 2.0 1.1 53 53
- 0.163 2 5 cbr 210 ------- 1 2.0 1.1 53 53
h 0.163 2 5 cbr 210 ------- 1 2.0 1.1 63 63
r 0.163022 5 1 cbr 210 ------- 1 2.0 1.1 43 43
+ 0.164 2 5 cbr 210 ------- 1 2.0 1.1 54 54
- 0.164 2 5 cbr 210 ------- 1 2.0 1.1 54 54
h 0.164 2 5 cbr 210 ------- 1 2.0 1.1 64 64
r 0.164022 5 1 cbr 210 ------- 1 2.0 1.1 44 44
+ 0.165 2 5 cbr 210 ------- 1 2.0 1.1 55 55
- 0.165 2 5 cbr 210 ------- 1 2.0 1.1 55 55
h 0.165 2 5 cbr 210 ------- 1 2.0 1.1 65 65
r 0.165022 5 1 cbr 210 ------- 1 2.0 1.1 45 45
+ 0.166 2 5 cbr 210 ------- 1 2.0 1.1 56 56
- 0.166 2 5 cbr 210 ------- 1 2.0 1.1 56 56
h 0.166 2 5 cbr 210 ------- 1 2.0 1.1 66 66
r 0.166022 5 1 cbr 210 ------- 1 2.0 1.1 46 46
+ 0.167 2 5 cbr 210 ------- 1 2.0 1.1 57 57
- 0.167 2 5 cbr 210 ------- 1 2.0 1.1 57 57
h 0.167 2 5 cbr 210 ------- 1 2.0 1.1 67 67
r 0.167022 5 1 cbr 210 ------- 1 2.0 1.1 47 47
+ 0.168 2 5 cbr 210 ------- 1 2.0 1.1 58 58
- 0.168 2 5 cbr 210 ------- 1 2.0 1.1 58 58
h 0.168 2 5 cbr 210 ------- 1 2.0 1.1 68 68
r 0.168022 5 1 cbr 210 ------- 1 2.0 1.1 48 48
+ 0.169 2 5 cbr 210 ------- 1 2.0 1.1 59 59
- 0.169 2 5 cbr 210 ------- 1 2.0 1.1 59 59
h 0.169 2 5 cbr 210 ------- 1 2.0 1.1 69 69
r 0.169022 5 1 cbr 210 ------- 1 2.0 1.1 49 49
+ 0.17 2 5 cbr 210 ------- 1 2.0 1.1 60 60
- 0.17 2 5 cbr 210 ------- 1 2.0 1.1 60 60
h 0.17 2 5 cbr 210 ------- 1 2.0 1.1 70 70
r 0.170022 5 1 cbr 210 ------- 1 2.0 1.1 50 50
+ 0.171 2 5 cbr 210 ------- 1 2.0 1.1 61 61
- 0.171 2 5 cbr 210 ------- 1 2.0 1.1 61 61
h 0.171 2 5 cbr 210 ------- 1 2.0 1.1 71 71
r 0.171022 5 1 cbr 210 ------- 1 2.0 1.1 51 51
+ 0.172 2 5 cbr 210 ------- 1 2.0 1.1 62 62
- 0.172 2 5 cbr 210 ------- 1 2.0 1.1 62 62
h 0.172 2 5 cbr 210 ------- 1 2.0 1.1 72 72
r 0.172022 5 1 cbr 210 ------- 1 2.0 1.1 52 52
+ 0.173 2 5 cbr 210 ------- 1 2.0 1.1 63 63
- 0.173 2 5 cbr 210 ------- 1 2.0 1.1 63 63
h 0.173 2 5 cbr 210 ------- 1 2.0 1.1 73 73
r 0.173022 5 1 cbr 210 ------- 1 2.0 1.1 53 53
+ 0.174 2 5 cbr 210 ------- 1 2.0 1.1 64 64
- 0.174 2 5 cbr 210 ------- 1 2.0 1.1 64 64
h 0.174 2 5 cbr 210 ------- 1 2.0 1.1 74 74
r 0.174022 5 1 cbr 210 ------- 1 2.0 1.1 54 54
+ 0.175 2 5 cbr 210 ------- 1 2.0 1.1 65 65
- 0.175 2 5 cbr 210 ------- 1 2.0 1.1 65 65
h 0.175 2 5 cbr 210 ------- 1 2.0 1.1 75 75
r 0.175022 5 1 cbr 210 ------- 1 2.0 1.1 55 55
+ 0.176 2 5 cbr 210 ------- 1 2.0 1.1 66 66
- 0.176 2 5 cbr 210 ------- 1 2.0 1.1 66 66
h 0.176 2 5 cbr 210 ------- 1 2.0 1.1 76 76
r 0.176022 5 1 cbr 210 ------- 1 2.0 1.1 56 56
+ 0.177 2 5 cbr 210 ------- 1 2.0 1.1 67 67
- 0.177 2 5 cbr 210 ------- 1 2.0 1.1 67 67
h 0.177 2 5 cbr 210 ------- 1 2.0 1.1 77 77
r 0.177022 5 1 cbr 210 ------- 1 2.0 1.1 57 57
+ 0.178 2 5 cbr 210 ------- 1 2.0 1.1 68 68
- 0.178 2 5 cbr 210 ------- 1 2.0 1.1 68 68
h 0.178 2 5 cbr 210 ------- 1 2.0 1.1 78 78
r 0.178022 5 1 cbr 210 ------- 1 2.0 1.1 58 58
+ 0.179 2 5 cbr 210 ------- 1 2.0 1.1 69 69
- 0.179 2 5 cbr 210 ------- 1 2.0 1.1 69 69
h 0.179 2 5 cbr 210 ------- 1 2.0 1.1 79 79
r 0.179022 5 1 cbr 210 ------- 1 2.0 1.1 59 59
+ 0.18 2 5 cbr 210 ------- 1 2.0 1.1 70 70
- 0.18 2 5 cbr 210 ------- 1 2.0 1.1 70 70
h 0.18 2 5 cbr 210 ------- 1 2.0 1.1 80 80
r 0.180022 5 1 cbr 210 ------- 1 2.0 1.1 60 60
+ 0.181 2 5 cbr 210 ------- 1 2.0 1.1 71 71
- 0.181 2 5 cbr 210 ------- 1 2.0 1.1 71 71
h 0.181 2 5 cbr 210 ------- 1 2.0 1.1 81 81
r 0.181022 5 1 cbr 210 ------- 1 2.0 1.1 61 61
+ 0.182 2 5 cbr 210 ------- 1 2.0 1.1 72 72
- 0.182 2 5 cbr 210 ------- 1 2.0 1.1 72 72
h 0.182 2 5 cbr 210 ------- 1 2.0 1.1 82 82
r 0.182022 5 1 cbr 210 ------- 1 2.0 1.1 62 62
+ 0.183 2 5 cbr 210 ------- 1 2.0 1.1 73 73
- 0.183 2 5 cbr 210 ------- 1 2.0 1.1 73 73
h 0.183 2 5 cbr 210 ------- 1 2.0 1.1 83 83
r 0.183022 5 1 cbr 210 ------- 1 2.0 1.1 63 63
+ 0.184 2 5 cbr 210 ------- 1 2.0 1.1 74 74
- 0.184 2 5 cbr 210 ------- 1 2.0 1.1 74 74
h 0.184 2 5 cbr 210 ------- 1 2.0 1.1 84 84
r 0.184022 5 1 cbr 210 ------- 1 2.0 1.1 64 64
+ 0.185 2 5 cbr 210 ------- 1 2.0 1.1 75 75
- 0.185 2 5 cbr 210 ------- 1 2.0 1.1 75 75
h 0.185 2 5 cbr 210 ------- 1 2.0 1.1 85 85
r 0.185022 5 1 cbr 210 ------- 1 2.0 1.1 65 65
+ 0.186 2 5 cbr 210 ------- 1 2.0 1.1 76 76
- 0.186 2 5 cbr 210 ------- 1 2.0 1.1 76 76
h 0.186 2 5 cbr 210 ------- 1 2.0 1.1 86 86
r 0.186022 5 1 cbr 210 ------- 1 2.0 1.1 66 66
+ 0.187 2 5 cbr 210 ------- 1 2.0 1.1 77 77
- 0.187 2 5 cbr 210 ------- 1 2.0 1.1 77 77
h 0.187 2 5 cbr 210 ------- 1 2.0 1.1 87 87
r 0.187022 5 1 cbr 210 ------- 1 2.0 1.1 67 67
+ 0.188 2 5 cbr 210 ------- 1 2.0 1.1 78 78
- 0.188 2 5 cbr 210 ------- 1 2.0 1.1 78 78
h 0.188 2 5 cbr 210 ------- 1 2.0 1.1 88 88
r 0.188022 5 1 cbr 210 ------- 1 2.0 1.1 68 68
+ 0.189 2 5 cbr 210 ------- 1 2.0 1.1 79 79
- 0.189 2 5 cbr 210 ------- 1 2.0 1.1 79 79
h 0.189 2 5 cbr 210 ------- 1 2.0 1.1 89 89
r 0.189022 5 1 cbr 210 ------- 1 2.0 1.1 69 69
+ 0.19 2 5 cbr 210 ------- 1 2.0 1.1 80 80
- 0.19 2 5 cbr 210 ------- 1 2.0 1.1 80 80
h 0.19 2 5 cbr 210 ------- 1 2.0 1.1 90 90
r 0.190022 5 1 cbr 210 ------- 1 2.0 1.1 70 70
+ 0.191 2 5 cbr 210 ------- 1 2.0 1.1 81 81
- 0.191 2 5 cbr 210 ------- 1 2.0 1.1 81 81
h 0.191 2 5 cbr 210 ------- 1 2.0 1.1 91 91
r 0.191022 5 1 cbr 210 ------- 1 2.0 1.1 71 71
+ 0.192 2 5 cbr 210 ------- 1 2.0 1.1 82 82
- 0.192 2 5 cbr 210 ------- 1 2.0 1.1 82 82
h 0.192 2 5 cbr 210 ------- 1 2.0 1.1 92 92
r 0.192022 5 1 cbr 210 ------- 1 2.0 1.1 72 72
+ 0.193 2 5 cbr 210 ------- 1 2.0 1.1 83 83
- 0.193 2 5 cbr 210 ------- 1 2.0 1.1 83 83
h 0.193 2 5 cbr 210 ------- 1 2.0 1.1 93 93
r 0.193022 5 1 cbr 210 ------- 1 2.0 1.1 73 73
+ 0.194 2 5 cbr 210 ------- 1 2.0 1.1 84 84
- 0.194 2 5 cbr 210 ------- 1 2.0 1.1 84 84
h 0.194 2 5 cbr 210 ------- 1 2.0 1.1 94 94
r 0.194022 5 1 cbr 210 ------- 1 2.0 1.1 74 74
+ 0.195 2 5 cbr 210 ------- 1 2.0 1.1 85 85
- 0.195 2 5 cbr 210 ------- 1 2.0 1.1 85 85
h 0.195 2 5 cbr 210 ------- 1 2.0 1.1 95 95
r 0.195022 5 1 cbr 210 ------- 1 2.0 1.1 75 75
+ 0.196 2 5 cbr 210 ------- 1 2.0 1.1 86 86
- 0.196 2 5 cbr 210 ------- 1 2.0 1.1 86 86
h 0.196 2 5 cbr 210 ------- 1 2.0 1.1 96 96
r 0.196022 5 1 cbr 210 ------- 1 2.0 1.1 76 76
+ 0.197 2 5 cbr 210 ------- 1 2.0 1.1 87 87
- 0.197 2 5 cbr 210 ------- 1 2.0 1.1 87 87
h 0.197 2 5 cbr 210 ------- 1 2.0 1.1 97 97
r 0.197022 5 1 cbr 210 ------- 1 2.0 1.1 77 77
+ 0.198 2 5 cbr 210 ------- 1 2.0 1.1 88 88
- 0.198 2 5 cbr 210 ------- 1 2.0 1.1 88 88
h 0.198 2 5 cbr 210 ------- 1 2.0 1.1 98 98
r 0.198022 5 1 cbr 210 ------- 1 2.0 1.1 78 78
+ 0.199 2 5 cbr 210 ------- 1 2.0 1.1 89 89
- 0.199 2 5 cbr 210 ------- 1 2.0 1.1 89 89
h 0.199 2 5 cbr 210 ------- 1 2.0 1.1 99 99
r 0.199022 5 1 cbr 210 ------- 1 2.0 1.1 79 79
+ 0.2 2 5 cbr 210 ------- 1 2.0 1.1 90 90
- 0.2 2 5 cbr 210 ------- 1 2.0 1.1 90 90
h 0.2 2 5 cbr 210 ------- 1 2.0 1.1 100 100
r 0.200022 5 1 cbr 210 ------- 1 2.0 1.1 80 80
+ 0.201 2 5 cbr 210 ------- 1 2.0 1.1 91 91
- 0.201 2 5 cbr 210 ------- 1 2.0 1.1 91 91
h 0.201 2 5 cbr 210 ------- 1 2.0 1.1 101 101
r 0.201022 5 1 cbr 210 ------- 1 2.0 1.1 81 81
+ 0.202 2 5 cbr 210 ------- 1 2.0 1.1 92 92
- 0.202 2 5 cbr 210 ------- 1 2.0 1.1 92 92
h 0.202 2 5 cbr 210 ------- 1 2.0 1.1 102 102
r 0.202022 5 1 cbr 210 ------- 1 2.0 1.1 82 82
+ 0.203 2 5 cbr 210 ------- 1 2.0 1.1 93 93
- 0.203 2 5 cbr 210 ------- 1 2.0 1.1 93 93
h 0.203 2 5 cbr 210 ------- 1 2.0 1.1 103 103
r 0.203022 5 1 cbr 210 ------- 1 2.0 1.1 83 83
+ 0.204 2 5 cbr 210 ------- 1 2.0 1.1 94 94
- 0.204 2 5 cbr 210 ------- 1 2.0 1.1 94 94
h 0.204 2 5 cbr 210 ------- 1 2.0 1.1 104 104
r 0.204022 5 1 cbr 210 ------- 1 2.0 1.1 84 84
+ 0.205 2 5 cbr 210 ------- 1 2.0 1.1 95 95
- 0.205 2 5 cbr 210 ------- 1 2.0 1.1 95 95
h 0.205 2 5 cbr 210 ------- 1 2.0 1.1 105 105
r 0.205022 5 1 cbr 210 ------- 1 2.0 1.1 85 85
+ 0.206 2 5 cbr 210 ------- 1 2.0 1.1 96 96
- 0.206 2 5 cbr 210 ------- 1 2.0 1.1 96 96
h 0.206 2 5 cbr 210 ------- 1 2.0 1.1 106 106
r 0.206022 5 1 cbr 210 ------- 1 2.0 1.1 86 86
+ 0.207 2 5 cbr 210 ------- 1 2.0 1.1 97 97
- 0.207 2 5 cbr 210 ------- 1 2.0 1.1 97 97
h 0.207 2 5 cbr 210 ------- 1 2.0 1.1 107 107
r 0.207022 5 1 cbr 210 ------- 1 2.0 1.1 87 87
+ 0.208 2 5 cbr 210 ------- 1 2.0 1.1 98 98
- 0.208 2 5 cbr 210 ------- 1 2.0 1.1 98 98
h 0.208 2 5 cbr 210 ------- 1 2.0 1.1 108 108
r 0.208022 5 1 cbr 210 ------- 1 2.0 1.1 88 88
+ 0.209 2 5 cbr 210 ------- 1 2.0 1.1 99 99
- 0.209 2 5 cbr 210 ------- 1 2.0 1.1 99 99
h 0.209 2 5 cbr 210 ------- 1 2.0 1.1 109 109
r 0.209022 5 1 cbr 210 ------- 1 2.0 1.1 89 89
+ 0.21 2 5 cbr 210 ------- 1 2.0 1.1 100 100
- 0.21 2 5 cbr 210 ------- 1 2.0 1.1 100 100
h 0.21 2 5 cbr 210 ------- 1 2.0 1.1 110 110
r 0.210022 5 1 cbr 210 ------- 1 2.0 1.1 90 90
+ 0.211 2 5 cbr 210 ------- 1 2.0 1.1 101 101
- 0.211 2 5 cbr 210 ------- 1 2.0 1.1 101 101
h 0.211 2 5 cbr 210 ------- 1 2.0 1.1 111 111
r 0.211022 5 1 cbr 210 ------- 1 2.0 1.1 91 91
+ 0.212 2 5 cbr 210 ------- 1 2.0 1.1 102 102
- 0.212 2 5 cbr 210 ------- 1 2.0 1.1 102 102
h 0.212 2 5 cbr 210 ------- 1 2.0 1.1 112 112
r 0.212022 5 1 cbr 210 ------- 1 2.0 1.1 92 92
+ 0.213 2 5 cbr 210 ------- 1 2.0 1.1 103 103
- 0.213 2 5 cbr 210 ------- 1 2.0 1.1 103 103
h 0.213 2 5 cbr 210 ------- 1 2.0 1.1 113 113
r 0.213022 5 1 cbr 210 ------- 1 2.0 1.1 93 93
+ 0.214 2 5 cbr 210 ------- 1 2.0 1.1 104 104
- 0.214 2 5 cbr 210 ------- 1 2.0 1.1 104 104
h 0.214 2 5 cbr 210 ------- 1 2.0 1.1 114 114
r 0.214022 5 1 cbr 210 ------- 1 2.0 1.1 94 94
+ 0.215 2 5 cbr 210 ------- 1 2.0 1.1 105 105
- 0.215 2 5 cbr 210 ------- 1 2.0 1.1 105 105
h 0.215 2 5 cbr 210 ------- 1 2.0 1.1 115 115
r 0.215022 5 1 cbr 210 ------- 1 2.0 1.1 95 95
+ 0.216 2 5 cbr 210 ------- 1 2.0 1.1 106 106
- 0.216 2 5 cbr 210 ------- 1 2.0 1.1 106 106
h 0.216 2 5 cbr 210 ------- 1 2.0 1.1 116 116
r 0.216022 5 1 cbr 210 ------- 1 2.0 1.1 96 96
+ 0.217 2 5 cbr 210 ------- 1 2.0 1.1 107 107
- 0.217 2 5 cbr 210 ------- 1 2.0 1.1 107 107
h 0.217 2 5 cbr 210 ------- 1 2.0 1.1 117 117
r 0.217022 5 1 cbr 210 ------- 1 2.0 1.1 97 97
+ 0.218 2 5 cbr 210 ------- 1 2.0 1.1 108 108
- 0.218 2 5 cbr 210 ------- 1 2.0 1.1 108 108
h 0.218 2 5 cbr 210 ------- 1 2.0 1.1 118 118
r 0.218022 5 1 cbr 210 ------- 1 2.0 1.1 98 98
+ 0.219 2 5 cbr 210 ------- 1 2.0 1.1 109 109
- 0.219 2 5 cbr 210 ------- 1 2.0 1.1 109 109
h 0.219 2 5 cbr 210 ------- 1 2.0 1.1 119 119
r 0.219022 5 1 cbr 210 ------- 1 2.0 1.1 99 99
+ 0.22 2 5 cbr 210 ------- 1 2.0 1.1 110 110
- 0.22 2 5 cbr 210 ------- 1 2.0 1.1 110 110
h 0.22 2 5 cbr 210 ------- 1 2.0 1.1 120 120
r 0.220022 5 1 cbr 210 ------- 1 2.0 1.1 100 100
+ 0.221 2 5 cbr 210 ------- 1 2.0 1.1 111 111
- 0.221 2 5 cbr 210 ------- 1 2.0 1.1 111 111
h 0.221 2 5 cbr 210 ------- 1 2.0 1.1 121 121
r 0.221022 5 1 cbr 210 ------- 1 2.0 1.1 101 101
+ 0.222 2 5 cbr 210 ------- 1 2.0 1.1 112 112
- 0.222 2 5 cbr 210 ------- 1 2.0 1.1 112 112
h 0.222 2 5 cbr 210 ------- 1 2.0 1.1 122 122
r 0.222022 5 1 cbr 210 ------- 1 2.0 1.1 102 102
+ 0.223 2 5 cbr 210 ------- 1 2.0 1.1 113 113
- 0.223 2 5 cbr 210 ------- 1 2.0 1.1 113 113
h 0.223 2 5 cbr 210 ------- 1 2.0 1.1 123 123
r 0.223022 5 1 cbr 210 ------- 1 2.0 1.1 103 103
+ 0.224 2 5 cbr 210 ------- 1 2.0 1.1 114 114
- 0.224 2 5 cbr 210 ------- 1 2.0 1.1 114 114
h 0.224 2 5 cbr 210 ------- 1 2.0 1.1 124 124
r 0.224022 5 1 cbr 210 ------- 1 2.0 1.1 104 104
+ 0.225 2 5 cbr 210 ------- 1 2.0 1.1 115 115
- 0.225 2 5 cbr 210 ------- 1 2.0 1.1 115 115
h 0.225 2 5 cbr 210 ------- 1 2.0 1.1 125 125
r 0.225022 5 1 cbr 210 ------- 1 2.0 1.1 105 105
+ 0.226 2 5 cbr 210 ------- 1 2.0 1.1 116 116
- 0.226 2 5 cbr 210 ------- 1 2.0 1.1 116 116
h 0.226 2 5 cbr 210 ------- 1 2.0 1.1 126 126
r 0.226022 5 1 cbr 210 ------- 1 2.0 1.1 106 106
+ 0.227 2 5 cbr 210 ------- 1 2.0 1.1 117 117
- 0.227 2 5 cbr 210 ------- 1 2.0 1.1 117 117
h 0.227 2 5 cbr 210 ------- 1 2.0 1.1 127 127
r 0.227022 5 1 cbr 210 ------- 1 2.0 1.1 107 107
+ 0.228 2 5 cbr 210 ------- 1 2.0 1.1 118 118
- 0.228 2 5 cbr 210 ------- 1 2.0 1.1 118 118
h 0.228 2 5 cbr 210 ------- 1 2.0 1.1 128 128
r 0.228022 5 1 cbr 210 ------- 1 2.0 1.1 108 108
+ 0.229 2 5 cbr 210 ------- 1 2.0 1.1 119 119
- 0.229 2 5 cbr 210 ------- 1 2.0 1.1 119 119
h 0.229 2 5 cbr 210 ------- 1 2.0 1.1 129 129
r 0.229022 5 1 cbr 210 ------- 1 2.0 1.1 109 109
+ 0.23 2 5 cbr 210 ------- 1 2.0 1.1 120 120
- 0.23 2 5 cbr 210 ------- 1 2.0 1.1 120 120
h 0.23 2 5 cbr 210 ------- 1 2.0 1.1 130 130
r 0.230022 5 1 cbr 210 ------- 1 2.0 1.1 110 110
+ 0.231 2 5 cbr 210 ------- 1 2.0 1.1 121 121
- 0.231 2 5 cbr 210 ------- 1 2.0 1.1 121 121
h 0.231 2 5 cbr 210 ------- 1 2.0 1.1 131 131
r 0.231022 5 1 cbr 210 ------- 1 2.0 1.1 111 111
+ 0.232 2 5 cbr 210 ------- 1 2.0 1.1 122 122
- 0.232 2 5 cbr 210 ------- 1 2.0 1.1 122 122
h 0.232 2 5 cbr 210 ------- 1 2.0 1.1 132 132
r 0.232022 5 1 cbr 210 ------- 1 2.0 1.1 112 112
+ 0.233 2 5 cbr 210 ------- 1 2.0 1.1 123 123
- 0.233 2 5 cbr 210 ------- 1 2.0 1.1 123 123
h 0.233 2 5 cbr 210 ------- 1 2.0 1.1 133 133
r 0.233022 5 1 cbr 210 ------- 1 2.0 1.1 113 113
+ 0.234 2 5 cbr 210 ------- 1 2.0 1.1 124 124
- 0.234 2 5 cbr 210 ------- 1 2.0 1.1 124 124
h 0.234 2 5 cbr 210 ------- 1 2.0 1.1 134 134
r 0.234022 5 1 cbr 210 ------- 1 2.0 1.1 114 114
+ 0.235 2 5 cbr 210 ------- 1 2.0 1.1 125 125
- 0.235 2 5 cbr 210 ------- 1 2.0 1.1 125 125
h 0.235 2 5 cbr 210 ------- 1 2.0 1.1 135 135
r 0.235022 5 1 cbr 210 ------- 1 2.0 1.1 115 115
+ 0.236 2 5 cbr 210 ------- 1 2.0 1.1 126 126
- 0.236 2 5 cbr 210 ------- 1 2.0 1.1 126 126
h 0.236 2 5 cbr 210 ------- 1 2.0 1.1 136 136
r 0.236022 5 1 cbr 210 ------- 1 2.0 1.1 116 116
+ 0.237 2 5 cbr 210 ------- 1 2.0 1.1 127 127
- 0.237 2 5 cbr 210 ------- 1 2.0 1.1 127 127
h 0.237 2 5 cbr 210 ------- 1 2.0 1.1 137 137
r 0.237022 5 1 cbr 210 ------- 1 2.0 1.1 117 117
+ 0.238 2 5 cbr 210 ------- 1 2.0 1.1 128 128
- 0.238 2 5 cbr 210 ------- 1 2.0 1.1 128 128
h 0.238 2 5 cbr 210 ------- 1 2.0 1.1 138 138
r 0.238022 5 1 cbr 210 ------- 1 2.0 1.1 118 118
+ 0.239 2 5 cbr 210 ------- 1 2.0 1.1 129 129
- 0.239 2 5 cbr 210 ------- 1 2.0 1.1 129 129
h 0.239 2 5 cbr 210 ------- 1 2.0 1.1 139 139
r 0.239022 5 1 cbr 210 ------- 1 2.0 1.1 119 119
+ 0.24 2 5 cbr 210 ------- 1 2.0 1.1 130 130
- 0.24 2 5 cbr 210 ------- 1 2.0 1.1 130 130
h 0.24 2 5 cbr 210 ------- 1 2.0 1.1 140 140
r 0.240022 5 1 cbr 210 ------- 1 2.0 1.1 120 120
+ 0.241 2 5 cbr 210 ------- 1 2.0 1.1 131 131
- 0.241 2 5 cbr 210 ------- 1 2.0 1.1 131 131
h 0.241 2 5 cbr 210 ------- 1 2.0 1.1 141 141
r 0.241022 5 1 cbr 210 ------- 1 2.0 1.1 121 121
+ 0.242 2 5 cbr 210 ------- 1 2.0 1.1 132 132
- 0.242 2 5 cbr 210 ------- 1 2.0 1.1 132 132
h 0.242 2 5 cbr 210 ------- 1 2.0 1.1 142 142
r 0.242022 5 1 cbr 210 ------- 1 2.0 1.1 122 122
+ 0.243 2 5 cbr 210 ------- 1 2.0 1.1 133 133
- 0.243 2 5 cbr 210 ------- 1 2.0 1.1 133 133
h 0.243 2 5 cbr 210 ------- 1 2.0 1.1 143 143
r 0.243022 5 1 cbr 210 ------- 1 2.0 1.1 123 123
+ 0.244 2 5 cbr 210 ------- 1 2.0 1.1 134 134
- 0.244 2 5 cbr 210 ------- 1 2.0 1.1 134 134
h 0.244 2 5 cbr 210 ------- 1 2.0 1.1 144 144
r 0.244022 5 1 cbr 210 ------- 1 2.0 1.1 124 124
+ 0.245 2 5 cbr 210 ------- 1 2.0 1.1 135 135
- 0.245 2 5 cbr 210 ------- 1 2.0 1.1 135 135
h 0.245 2 5 cbr 210 ------- 1 2.0 1.1 145 145
r 0.245022 5 1 cbr 210 ------- 1 2.0 1.1 125 125
+ 0.246 2 5 cbr 210 ------- 1 2.0 1.1 136 136
- 0.246 2 5 cbr 210 ------- 1 2.0 1.1 136 136
h 0.246 2 5 cbr 210 ------- 1 2.0 1.1 146 146
r 0.246022 5 1 cbr 210 ------- 1 2.0 1.1 126 126
+ 0.247 2 5 cbr 210 ------- 1 2.0 1.1 137 137
- 0.247 2 5 cbr 210 ------- 1 2.0 1.1 137 137
h 0.247 2 5 cbr 210 ------- 1 2.0 1.1 147 147
r 0.247022 5 1 cbr 210 ------- 1 2.0 1.1 127 127
+ 0.248 2 5 cbr 210 ------- 1 2.0 1.1 138 138
- 0.248 2 5 cbr 210 ------- 1 2.0 1.1 138 138
h 0.248 2 5 cbr 210 ------- 1 2.0 1.1 148 148
r 0.248022 5 1 cbr 210 ------- 1 2.0 1.1 128 128
+ 0.249 2 5 cbr 210 ------- 1 2.0 1.1 139 139
- 0.249 2 5 cbr 210 ------- 1 2.0 1.1 139 139
h 0.249 2 5 cbr 210 ------- 1 2.0 1.1 149 149
r 0.249022 5 1 cbr 210 ------- 1 2.0 1.1 129 129
+ 0.25 2 5 cbr 210 ------- 1 2.0 1.1 140 140
- 0.25 2 5 cbr 210 ------- 1 2.0 1.1 140 140
h 0.25 2 5 cbr 210 ------- 1 2.0 1.1 150 150
r 0.250022 5 1 cbr 210 ------- 1 2.0 1.1 130 130
+ 0.251 2 5 cbr 210 ------- 1 2.0 1.1 141 141
- 0.251 2 5 cbr 210 ------- 1 2.0 1.1 141 141
h 0.251 2 5 cbr 210 ------- 1 2.0 1.1 151 151
r 0.251022 5 1 cbr 210 ------- 1 2.0 1.1 131 131
+ 0.252 2 5 cbr 210 ------- 1 2.0 1.1 142 142
- 0.252 2 5 cbr 210 ------- 1 2.0 1.1 142 142
h 0.252 2 5 cbr 210 ------- 1 2.0 1.1 152 152
r 0.252022 5 1 cbr 210 ------- 1 2.0 1.1 132 132
+ 0.253 2 5 cbr 210 ------- 1 2.0 1.1 143 143
- 0.253 2 5 cbr 210 ------- 1 2.0 1.1 143 143
h 0.253 2 5 cbr 210 ------- 1 2.0 1.1 153 153
r 0.253022 5 1 cbr 210 ------- 1 2.0 1.1 133 133
+ 0.254 2 5 cbr 210 ------- 1 2.0 1.1 144 144
- 0.254 2 5 cbr 210 ------- 1 2.0 1.1 144 144
h 0.254 2 5 cbr 210 ------- 1 2.0 1.1 154 154
r 0.254022 5 1 cbr 210 ------- 1 2.0 1.1 134 134
+ 0.255 2 5 cbr 210 ------- 1 2.0 1.1 145 145
- 0.255 2 5 cbr 210 ------- 1 2.0 1.1 145 145
h 0.255 2 5 cbr 210 ------- 1 2.0 1.1 155 155
r 0.255022 5 1 cbr 210 ------- 1 2.0 1.1 135 135
+ 0.256 2 5 cbr 210 ------- 1 2.0 1.1 146 146
- 0.256 2 5 cbr 210 ------- 1 2.0 1.1 146 146
h 0.256 2 5 cbr 210 ------- 1 2.0 1.1 156 156
r 0.256022 5 1 cbr 210 ------- 1 2.0 1.1 136 136
+ 0.257 2 5 cbr 210 ------- 1 2.0 1.1 147 147
- 0.257 2 5 cbr 210 ------- 1 2.0 1.1 147 147
h 0.257 2 5 cbr 210 ------- 1 2.0 1.1 157 157
r 0.257022 5 1 cbr 210 ------- 1 2.0 1.1 137 137
+ 0.258 2 5 cbr 210 ------- 1 2.0 1.1 148 148
- 0.258 2 5 cbr 210 ------- 1 2.0 1.1 148 148
h 0.258 2 5 cbr 210 ------- 1 2.0 1.1 158 158
r 0.258022 5 1 cbr 210 ------- 1 2.0 1.1 138 138
+ 0.259 2 5 cbr 210 ------- 1 2.0 1.1 149 149
- 0.259 2 5 cbr 210 ------- 1 2.0 1.1 149 149
h 0.259 2 5 cbr 210 ------- 1 2.0 1.1 159 159
r 0.259022 5 1 cbr 210 ------- 1 2.0 1.1 139 139
+ 0.26 2 5 cbr 210 ------- 1 2.0 1.1 150 150
- 0.26 2 5 cbr 210 ------- 1 2.0 1.1 150 150
h 0.26 2 5 cbr 210 ------- 1 2.0 1.1 160 160
r 0.260022 5 1 cbr 210 ------- 1 2.0 1.1 140 140
+ 0.261 2 5 cbr 210 ------- 1 2.0 1.1 151 151
- 0.261 2 5 cbr 210 ------- 1 2.0 1.1 151 151
h 0.261 2 5 cbr 210 ------- 1 2.0 1.1 161 161
r 0.261022 5 1 cbr 210 ------- 1 2.0 1.1 141 141
+ 0.262 2 5 cbr 210 ------- 1 2.0 1.1 152 152
- 0.262 2 5 cbr 210 ------- 1 2.0 1.1 152 152
h 0.262 2 5 cbr 210 ------- 1 2.0 1.1 162 162
r 0.262022 5 1 cbr 210 ------- 1 2.0 1.1 142 142
+ 0.263 2 5 cbr 210 ------- 1 2.0 1.1 153 153
- 0.263 2 5 cbr 210 ------- 1 2.0 1.1 153 153
h 0.263 2 5 cbr 210 ------- 1 2.0 1.1 163 163
r 0.263022 5 1 cbr 210 ------- 1 2.0 1.1 143 143
+ 0.264 2 5 cbr 210 ------- 1 2.0 1.1 154 154
- 0.264 2 5 cbr 210 ------- 1 2.0 1.1 154 154
h 0.264 2 5 cbr 210 ------- 1 2.0 1.1 164 164
r 0.264022 5 1 cbr 210 ------- 1 2.0 1.1 144 144
+ 0.265 2 5 cbr 210 ------- 1 2.0 1.1 155 155
- 0.265 2 5 cbr 210 ------- 1 2.0 1.1 155 155
h 0.265 2 5 cbr 210 ------- 1 2.0 1.1 165 165
r 0.265022 5 1 cbr 210 ------- 1 2.0 1.1 145 145
+ 0.266 2 5 cbr 210 ------- 1 2.0 1.1 156 156
- 0.266 2 5 cbr 210 ------- 1 2.0 1.1 156 156
h 0.266 2 5 cbr 210 ------- 1 2.0 1.1 166 166
r 0.266022 5 1 cbr 210 ------- 1 2.0 1.1 146 146
+ 0.267 2 5 cbr 210 ------- 1 2.0 1.1 157 157
- 0.267 2 5 cbr 210 ------- 1 2.0 1.1 157 157
h 0.267 2 5 cbr 210 ------- 1 2.0 1.1 167 167
r 0.267022 5 1 cbr 210 ------- 1 2.0 1.1 147 147
+ 0.268 2 5 cbr 210 ------- 1 2.0 1.1 158 158
- 0.268 2 5 cbr 210 ------- 1 2.0 1.1 158 158
h 0.268 2 5 cbr 210 ------- 1 2.0 1.1 168 168
r 0.268022 5 1 cbr 210 ------- 1 2.0 1.1 148 148
+ 0.269 2 5 cbr 210 ------- 1 2.0 1.1 159 159
- 0.269 2 5 cbr 210 ------- 1 2.0 1.1 159 159
h 0.269 2 5 cbr 210 ------- 1 2.0 1.1 169 169
r 0.269022 5 1 cbr 210 ------- 1 2.0 1.1 149 149
+ 0.27 2 5 cbr 210 ------- 1 2.0 1.1 160 160
- 0.27 2 5 cbr 210 ------- 1 2.0 1.1 160 160
h 0.27 2 5 cbr 210 ------- 1 2.0 1.1 170 170
r 0.270022 5 1 cbr 210 ------- 1 2.0 1.1 150 150
+ 0.271 2 5 cbr 210 ------- 1 2.0 1.1 161 161
- 0.271 2 5 cbr 210 ------- 1 2.0 1.1 161 161
h 0.271 2 5 cbr 210 ------- 1 2.0 1.1 171 171
r 0.271022 5 1 cbr 210 ------- 1 2.0 1.1 151 151
+ 0.272 2 5 cbr 210 ------- 1 2.0 1.1 162 162
- 0.272 2 5 cbr 210 ------- 1 2.0 1.1 162 162
h 0.272 2 5 cbr 210 ------- 1 2.0 1.1 172 172
r 0.272022 5 1 cbr 210 ------- 1 2.0 1.1 152 152
+ 0.273 2 5 cbr 210 ------- 1 2.0 1.1 163 163
- 0.273 2 5 cbr 210 ------- 1 2.0 1.1 163 163
h 0.273 2 5 cbr 210 ------- 1 2.0 1.1 173 173
r 0.273022 5 1 cbr 210 ------- 1 2.0 1.1 153 153
+ 0.274 2 5 cbr 210 ------- 1 2.0 1.1 164 164
- 0.274 2 5 cbr 210 ------- 1 2.0 1.1 164 164
h 0.274 2 5 cbr 210 ------- 1 2.0 1.1 174 174
r 0.274022 5 1 cbr 210 ------- 1 2.0 1.1 154 154
+ 0.275 2 5 cbr 210 ------- 1 2.0 1.1 165 165
- 0.275 2 5 cbr 210 ------- 1 2.0 1.1 165 165