n -t 0 -s 0 -S DLABEL -l "Source/UDP" -L ""
n -t 0 -s 1 -S DLABEL -l "Source/UDP" -L ""
n -t 0 -s 2 -S DLABEL -l "Destination" -L ""
V -t * -v 1.0a5 -a 0
A -t * -n 1 -p 0 -o 0x7fffffff -c 30 -a 1
A -t * -h 1 -m 1073741823 -s 0
c -t * -i 1 -n red
c -t * -i 2 -n green
n -t * -a 0 -s 0 -S UP -v circle -c black -i black
n -t * -a 1 -s 1 -S UP -v circle -c black -i black
n -t * -a 2 -s 2 -S UP -v circle -c black -i black
l -t * -s 0 -d 2 -S UP -r 200000 -D 0.10000000000000001 -c black
l -t * -s 1 -d 2 -S UP -r 200000 -D 0.10000000000000001 -c black
+ -t 0.1 -s 0 -d 2 -p cbr -e 500 -c 1 -i 0 -a 1 -x {0.0 2.0 0 ------- null}
- -t 0.1 -s 0 -d 2 -p cbr -e 500 -c 1 -i 0 -a 1 -x {0.0 2.0 0 ------- null}
h -t 0.1 -s 0 -d 2 -p cbr -e 500 -c 1 -i 0 -a 1 -x {0.0 2.0 -1 ------- null}
+ -t 0.1 -s 1 -d 2 -p cbr -e 500 -c 2 -i 1 -a 2 -x {1.0 2.0 0 ------- null}
- -t 0.1 -s 1 -d 2 -p cbr -e 500 -c 2 -i 1 -a 2 -x {1.0 2.0 0 ------- null}
h -t 0.1 -s 1 -d 2 -p cbr -e 500 -c 2 -i 1 -a 2 -x {1.0 2.0 -1 ------- null}
+ -t 0.11 -s 0 -d 2 -p cbr -e 500 -c 1 -i 2 -a 1 -x {0.0 2.0 1 ------- null}
+ -t 0.11 -s 1 -d 2 -p cbr -e 500 -c 2 -i 3 -a 2 -x {1.0 2.0 1 ------- null}
+ -t 0.12 -s 0 -d 2 -p cbr -e 500 -c 1 -i 4 -a 1 -x {0.0 2.0 2 ------- null}
+ -t 0.12 -s 1 -d 2 -p cbr -e 500 -c 2 -i 5 -a 2 -x {1.0 2.0 2 ------- null}
- -t 0.12 -s 0 -d 2 -p cbr -e 500 -c 1 -i 2 -a 1 -x {0.0 2.0 1 ------- null}
h -t 0.12 -s 0 -d 2 -p cbr -e 500 -c 1 -i 2 -a 1 -x {0.0 2.0 -1 ------- null}
- -t 0.12 -s 1 -d 2 -p cbr -e 500 -c 2 -i 3 -a 2 -x {1.0 2.0 1 ------- null}
h -t 0.12 -s 1 -d 2 -p cbr -e 500 -c 2 -i 3 -a 2 -x {1.0 2.0 -1 ------- null}
+ -t 0.13 -s 0 -d 2 -p cbr -e 500 -c 1 -i 6 -a 1 -x {0.0 2.0 3 ------- null}
+ -t 0.13 -s 1 -d 2 -p cbr -e 500 -c 2 -i 7 -a 2 -x {1.0 2.0 3 ------- null}
- -t 0.14 -s 0 -d 2 -p cbr -e 500 -c 1 -i 4 -a 1 -x {0.0 2.0 2 ------- null}
h -t 0.14 -s 0 -d 2 -p cbr -e 500 -c 1 -i 4 -a 1 -x {0.0 2.0 -1 ------- null}
- -t 0.14 -s 1 -d 2 -p cbr -e 500 -c 2 -i 5 -a 2 -x {1.0 2.0 2 ------- null}
h -t 0.14 -s 1 -d 2 -p cbr -e 500 -c 2 -i 5 -a 2 -x {1.0 2.0 -1 ------- null}
+ -t 0.14 -s 0 -d 2 -p cbr -e 500 -c 1 -i 8 -a 1 -x {0.0 2.0 4 ------- null}
+ -t 0.14 -s 1 -d 2 -p cbr -e 500 -c 2 -i 9 -a 2 -x {1.0 2.0 4 ------- null}
+ -t 0.15 -s 0 -d 2 -p cbr -e 500 -c 1 -i 10 -a 1 -x {0.0 2.0 5 ------- null}
+ -t 0.15 -s 1 -d 2 -p cbr -e 500 -c 2 -i 11 -a 2 -x {1.0 2.0 5 ------- null}
- -t 0.16 -s 0 -d 2 -p cbr -e 500 -c 1 -i 6 -a 1 -x {0.0 2.0 3 ------- null}
h -t 0.16 -s 0 -d 2 -p cbr -e 500 -c 1 -i 6 -a 1 -x {0.0 2.0 -1 ------- null}
- -t 0.16 -s 1 -d 2 -p cbr -e 500 -c 2 -i 7 -a 2 -x {1.0 2.0 3 ------- null}
h -t 0.16 -s 1 -d 2 -p cbr -e 500 -c 2 -i 7 -a 2 -x {1.0 2.0 -1 ------- null}
+ -t 0.16 -s 0 -d 2 -p cbr -e 500 -c 1 -i 12 -a 1 -x {0.0 2.0 6 ------- null}
+ -t 0.16 -s 1 -d 2 -p cbr -e 500 -c 2 -i 13 -a 2 -x {1.0 2.0 6 ------- null}
+ -t 0.17 -s 0 -d 2 -p cbr -e 500 -c 1 -i 14 -a 1 -x {0.0 2.0 7 ------- null}
+ -t 0.17 -s 1 -d 2 -p cbr -e 500 -c 2 -i 15 -a 2 -x {1.0 2.0 7 ------- null}
- -t 0.18 -s 0 -d 2 -p cbr -e 500 -c 1 -i 8 -a 1 -x {0.0 2.0 4 ------- null}
h -t 0.18 -s 0 -d 2 -p cbr -e 500 -c 1 -i 8 -a 1 -x {0.0 2.0 -1 ------- null}
- -t 0.18 -s 1 -d 2 -p cbr -e 500 -c 2 -i 9 -a 2 -x {1.0 2.0 4 ------- null}
h -t 0.18 -s 1 -d 2 -p cbr -e 500 -c 2 -i 9 -a 2 -x {1.0 2.0 -1 ------- null}
+ -t 0.18 -s 0 -d 2 -p cbr -e 500 -c 1 -i 16 -a 1 -x {0.0 2.0 8 ------- null}
+ -t 0.18 -s 1 -d 2 -p cbr -e 500 -c 2 -i 17 -a 2 -x {1.0 2.0 8 ------- null}
+ -t 0.19 -s 0 -d 2 -p cbr -e 500 -c 1 -i 18 -a 1 -x {0.0 2.0 9 ------- null}
+ -t 0.19 -s 1 -d 2 -p cbr -e 500 -c 2 -i 19 -a 2 -x {1.0 2.0 9 ------- null}
- -t 0.2 -s 0 -d 2 -p cbr -e 500 -c 1 -i 10 -a 1 -x {0.0 2.0 5 ------- null}
h -t 0.2 -s 0 -d 2 -p cbr -e 500 -c 1 -i 10 -a 1 -x {0.0 2.0 -1 ------- null}
- -t 0.2 -s 1 -d 2 -p cbr -e 500 -c 2 -i 11 -a 2 -x {1.0 2.0 5 ------- null}
h -t 0.2 -s 1 -d 2 -p cbr -e 500 -c 2 -i 11 -a 2 -x {1.0 2.0 -1 ------- null}
+ -t 0.2 -s 0 -d 2 -p cbr -e 500 -c 1 -i 20 -a 1 -x {0.0 2.0 10 ------- null}
+ -t 0.2 -s 1 -d 2 -p cbr -e 500 -c 2 -i 21 -a 2 -x {1.0 2.0 10 ------- null}
+ -t 0.21 -s 0 -d 2 -p cbr -e 500 -c 1 -i 22 -a 1 -x {0.0 2.0 11 ------- null}
+ -t 0.21 -s 1 -d 2 -p cbr -e 500 -c 2 -i 23 -a 2 -x {1.0 2.0 11 ------- null}
- -t 0.22 -s 0 -d 2 -p cbr -e 500 -c 1 -i 12 -a 1 -x {0.0 2.0 6 ------- null}
h -t 0.22 -s 0 -d 2 -p cbr -e 500 -c 1 -i 12 -a 1 -x {0.0 2.0 -1 ------- null}
- -t 0.22 -s 1 -d 2 -p cbr -e 500 -c 2 -i 13 -a 2 -x {1.0 2.0 6 ------- null}
h -t 0.22 -s 1 -d 2 -p cbr -e 500 -c 2 -i 13 -a 2 -x {1.0 2.0 -1 ------- null}
r -t 0.22 -s 0 -d 2 -p cbr -e 500 -c 1 -i 0 -a 1 -x {0.0 2.0 0 ------- null}
r -t 0.22 -s 1 -d 2 -p cbr -e 500 -c 2 -i 1 -a 2 -x {1.0 2.0 0 ------- null}
+ -t 0.22 -s 0 -d 2 -p cbr -e 500 -c 1 -i 24 -a 1 -x {0.0 2.0 12 ------- null}
+ -t 0.22 -s 1 -d 2 -p cbr -e 500 -c 2 -i 25 -a 2 -x {1.0 2.0 12 ------- null}
+ -t 0.23 -s 0 -d 2 -p cbr -e 500 -c 1 -i 26 -a 1 -x {0.0 2.0 13 ------- null}
+ -t 0.23 -s 1 -d 2 -p cbr -e 500 -c 2 -i 27 -a 2 -x {1.0 2.0 13 ------- null}
- -t 0.24 -s 0 -d 2 -p cbr -e 500 -c 1 -i 14 -a 1 -x {0.0 2.0 7 ------- null}
h -t 0.24 -s 0 -d 2 -p cbr -e 500 -c 1 -i 14 -a 1 -x {0.0 2.0 -1 ------- null}
- -t 0.24 -s 1 -d 2 -p cbr -e 500 -c 2 -i 15 -a 2 -x {1.0 2.0 7 ------- null}
h -t 0.24 -s 1 -d 2 -p cbr -e 500 -c 2 -i 15 -a 2 -x {1.0 2.0 -1 ------- null}
r -t 0.24 -s 0 -d 2 -p cbr -e 500 -c 1 -i 2 -a 1 -x {0.0 2.0 1 ------- null}
r -t 0.24 -s 1 -d 2 -p cbr -e 500 -c 2 -i 3 -a 2 -x {1.0 2.0 1 ------- null}
+ -t 0.24 -s 0 -d 2 -p cbr -e 500 -c 1 -i 28 -a 1 -x {0.0 2.0 14 ------- null}
+ -t 0.24 -s 1 -d 2 -p cbr -e 500 -c 2 -i 29 -a 2 -x {1.0 2.0 14 ------- null}
+ -t 0.25 -s 0 -d 2 -p cbr -e 500 -c 1 -i 30 -a 1 -x {0.0 2.0 15 ------- null}
+ -t 0.25 -s 1 -d 2 -p cbr -e 500 -c 2 -i 31 -a 2 -x {1.0 2.0 15 ------- null}
- -t 0.26 -s 0 -d 2 -p cbr -e 500 -c 1 -i 16 -a 1 -x {0.0 2.0 8 ------- null}
h -t 0.26 -s 0 -d 2 -p cbr -e 500 -c 1 -i 16 -a 1 -x {0.0 2.0 -1 ------- null}
- -t 0.26 -s 1 -d 2 -p cbr -e 500 -c 2 -i 17 -a 2 -x {1.0 2.0 8 ------- null}
h -t 0.26 -s 1 -d 2 -p cbr -e 500 -c 2 -i 17 -a 2 -x {1.0 2.0 -1 ------- null}
r -t 0.26 -s 0 -d 2 -p cbr -e 500 -c 1 -i 4 -a 1 -x {0.0 2.0 2 ------- null}
r -t 0.26 -s 1 -d 2 -p cbr -e 500 -c 2 -i 5 -a 2 -x {1.0 2.0 2 ------- null}
+ -t 0.26 -s 0 -d 2 -p cbr -e 500 -c 1 -i 32 -a 1 -x {0.0 2.0 16 ------- null}
+ -t 0.26 -s 1 -d 2 -p cbr -e 500 -c 2 -i 33 -a 2 -x {1.0 2.0 16 ------- null}
+ -t 0.27 -s 0 -d 2 -p cbr -e 500 -c 1 -i 34 -a 1 -x {0.0 2.0 17 ------- null}
+ -t 0.27 -s 1 -d 2 -p cbr -e 500 -c 2 -i 35 -a 2 -x {1.0 2.0 17 ------- null}
- -t 0.28 -s 0 -d 2 -p cbr -e 500 -c 1 -i 18 -a 1 -x {0.0 2.0 9 ------- null}
h -t 0.28 -s 0 -d 2 -p cbr -e 500 -c 1 -i 18 -a 1 -x {0.0 2.0 -1 ------- null}
- -t 0.28 -s 1 -d 2 -p cbr -e 500 -c 2 -i 19 -a 2 -x {1.0 2.0 9 ------- null}
h -t 0.28 -s 1 -d 2 -p cbr -e 500 -c 2 -i 19 -a 2 -x {1.0 2.0 -1 ------- null}
r -t 0.28 -s 0 -d 2 -p cbr -e 500 -c 1 -i 6 -a 1 -x {0.0 2.0 3 ------- null}
r -t 0.28 -s 1 -d 2 -p cbr -e 500 -c 2 -i 7 -a 2 -x {1.0 2.0 3 ------- null}
+ -t 0.28 -s 0 -d 2 -p cbr -e 500 -c 1 -i 36 -a 1 -x {0.0 2.0 18 ------- null}
+ -t 0.28 -s 1 -d 2 -p cbr -e 500 -c 2 -i 37 -a 2 -x {1.0 2.0 18 ------- null}
+ -t 0.29 -s 0 -d 2 -p cbr -e 500 -c 1 -i 38 -a 1 -x {0.0 2.0 19 ------- null}
+ -t 0.29 -s 1 -d 2 -p cbr -e 500 -c 2 -i 39 -a 2 -x {1.0 2.0 19 ------- null}
r -t 0.3 -s 0 -d 2 -p cbr -e 500 -c 1 -i 8 -a 1 -x {0.0 2.0 4 ------- null}
r -t 0.3 -s 1 -d 2 -p cbr -e 500 -c 2 -i 9 -a 2 -x {1.0 2.0 4 ------- null}
- -t 0.3 -s 0 -d 2 -p cbr -e 500 -c 1 -i 20 -a 1 -x {0.0 2.0 10 ------- null}
h -t 0.3 -s 0 -d 2 -p cbr -e 500 -c 1 -i 20 -a 1 -x {0.0 2.0 -1 ------- null}
- -t 0.3 -s 1 -d 2 -p cbr -e 500 -c 2 -i 21 -a 2 -x {1.0 2.0 10 ------- null}
h -t 0.3 -s 1 -d 2 -p cbr -e 500 -c 2 -i 21 -a 2 -x {1.0 2.0 -1 ------- null}
+ -t 0.3 -s 0 -d 2 -p cbr -e 500 -c 1 -i 40 -a 1 -x {0.0 2.0 20 ------- null}
+ -t 0.3 -s 1 -d 2 -p cbr -e 500 -c 2 -i 41 -a 2 -x {1.0 2.0 20 ------- null}
+ -t 0.31 -s 0 -d 2 -p cbr -e 500 -c 1 -i 42 -a 1 -x {0.0 2.0 21 ------- null}
+ -t 0.31 -s 1 -d 2 -p cbr -e 500 -c 2 -i 43 -a 2 -x {1.0 2.0 21 ------- null}
r -t 0.32 -s 0 -d 2 -p cbr -e 500 -c 1 -i 10 -a 1 -x {0.0 2.0 5 ------- null}
r -t 0.32 -s 1 -d 2 -p cbr -e 500 -c 2 -i 11 -a 2 -x {1.0 2.0 5 ------- null}
- -t 0.32 -s 0 -d 2 -p cbr -e 500 -c 1 -i 22 -a 1 -x {0.0 2.0 11 ------- null}
h -t 0.32 -s 0 -d 2 -p cbr -e 500 -c 1 -i 22 -a 1 -x {0.0 2.0 -1 ------- null}
- -t 0.32 -s 1 -d 2 -p cbr -e 500 -c 2 -i 23 -a 2 -x {1.0 2.0 11 ------- null}
h -t 0.32 -s 1 -d 2 -p cbr -e 500 -c 2 -i 23 -a 2 -x {1.0 2.0 -1 ------- null}
+ -t 0.32 -s 0 -d 2 -p cbr -e 500 -c 1 -i 44 -a 1 -x {0.0 2.0 22 ------- null}
+ -t 0.32 -s 1 -d 2 -p cbr -e 500 -c 2 -i 45 -a 2 -x {1.0 2.0 22 ------- null}
+ -t 0.33 -s 0 -d 2 -p cbr -e 500 -c 1 -i 46 -a 1 -x {0.0 2.0 23 ------- null}
+ -t 0.33 -s 1 -d 2 -p cbr -e 500 -c 2 -i 47 -a 2 -x {1.0 2.0 23 ------- null}
r -t 0.34 -s 0 -d 2 -p cbr -e 500 -c 1 -i 12 -a 1 -x {0.0 2.0 6 ------- null}
r -t 0.34 -s 1 -d 2 -p cbr -e 500 -c 2 -i 13 -a 2 -x {1.0 2.0 6 ------- null}
- -t 0.34 -s 0 -d 2 -p cbr -e 500 -c 1 -i 24 -a 1 -x {0.0 2.0 12 ------- null}
h -t 0.34 -s 0 -d 2 -p cbr -e 500 -c 1 -i 24 -a 1 -x {0.0 2.0 -1 ------- null}
- -t 0.34 -s 1 -d 2 -p cbr -e 500 -c 2 -i 25 -a 2 -x {1.0 2.0 12 ------- null}
h -t 0.34 -s 1 -d 2 -p cbr -e 500 -c 2 -i 25 -a 2 -x {1.0 2.0 -1 ------- null}
+ -t 0.34 -s 0 -d 2 -p cbr -e 500 -c 1 -i 48 -a 1 -x {0.0 2.0 24 ------- null}
+ -t 0.34 -s 1 -d 2 -p cbr -e 500 -c 2 -i 49 -a 2 -x {1.0 2.0 24 ------- null}
+ -t 0.35 -s 0 -d 2 -p cbr -e 500 -c 1 -i 50 -a 1 -x {0.0 2.0 25 ------- null}
+ -t 0.35 -s 1 -d 2 -p cbr -e 500 -c 2 -i 51 -a 2 -x {1.0 2.0 25 ------- null}
r -t 0.36 -s 0 -d 2 -p cbr -e 500 -c 1 -i 14 -a 1 -x {0.0 2.0 7 ------- null}
r -t 0.36 -s 1 -d 2 -p cbr -e 500 -c 2 -i 15 -a 2 -x {1.0 2.0 7 ------- null}
- -t 0.36 -s 0 -d 2 -p cbr -e 500 -c 1 -i 26 -a 1 -x {0.0 2.0 13 ------- null}
h -t 0.36 -s 0 -d 2 -p cbr -e 500 -c 1 -i 26 -a 1 -x {0.0 2.0 -1 ------- null}
- -t 0.36 -s 1 -d 2 -p cbr -e 500 -c 2 -i 27 -a 2 -x {1.0 2.0 13 ------- null}
h -t 0.36 -s 1 -d 2 -p cbr -e 500 -c 2 -i 27 -a 2 -x {1.0 2.0 -1 ------- null}
+ -t 0.36 -s 0 -d 2 -p cbr -e 500 -c 1 -i 52 -a 1 -x {0.0 2.0 26 ------- null}
+ -t 0.36 -s 1 -d 2 -p cbr -e 500 -c 2 -i 53 -a 2 -x {1.0 2.0 26 ------- null}
+ -t 0.37 -s 0 -d 2 -p cbr -e 500 -c 1 -i 54 -a 1 -x {0.0 2.0 27 ------- null}
+ -t 0.37 -s 1 -d 2 -p cbr -e 500 -c 2 -i 55 -a 2 -x {1.0 2.0 27 ------- null}
r -t 0.38 -s 0 -d 2 -p cbr -e 500 -c 1 -i 16 -a 1 -x {0.0 2.0 8 ------- null}
r -t 0.38 -s 1 -d 2 -p cbr -e 500 -c 2 -i 17 -a 2 -x {1.0 2.0 8 ------- null}
- -t 0.38 -s 0 -d 2 -p cbr -e 500 -c 1 -i 28 -a 1 -x {0.0 2.0 14 ------- null}
h -t 0.38 -s 0 -d 2 -p cbr -e 500 -c 1 -i 28 -a 1 -x {0.0 2.0 -1 ------- null}
- -t 0.38 -s 1 -d 2 -p cbr -e 500 -c 2 -i 29 -a 2 -x {1.0 2.0 14 ------- null}
h -t 0.38 -s 1 -d 2 -p cbr -e 500 -c 2 -i 29 -a 2 -x {1.0 2.0 -1 ------- null}
+ -t 0.38 -s 0 -d 2 -p cbr -e 500 -c 1 -i 56 -a 1 -x {0.0 2.0 28 ------- null}
+ -t 0.38 -s 1 -d 2 -p cbr -e 500 -c 2 -i 57 -a 2 -x {1.0 2.0 28 ------- null}
+ -t 0.39 -s 0 -d 2 -p cbr -e 500 -c 1 -i 58 -a 1 -x {0.0 2.0 29 ------- null}
+ -t 0.39 -s 1 -d 2 -p cbr -e 500 -c 2 -i 59 -a 2 -x {1.0 2.0 29 ------- null}
r -t 0.4 -s 0 -d 2 -p cbr -e 500 -c 1 -i 18 -a 1 -x {0.0 2.0 9 ------- null}
r -t 0.4 -s 1 -d 2 -p cbr -e 500 -c 2 -i 19 -a 2 -x {1.0 2.0 9 ------- null}
- -t 0.4 -s 0 -d 2 -p cbr -e 500 -c 1 -i 30 -a 1 -x {0.0 2.0 15 ------- null}
h -t 0.4 -s 0 -d 2 -p cbr -e 500 -c 1 -i 30 -a 1 -x {0.0 2.0 -1 ------- null}
- -t 0.4 -s 1 -d 2 -p cbr -e 500 -c 2 -i 31 -a 2 -x {1.0 2.0 15 ------- null}
h -t 0.4 -s 1 -d 2 -p cbr -e 500 -c 2 -i 31 -a 2 -x {1.0 2.0 -1 ------- null}
+ -t 0.4 -s 0 -d 2 -p cbr -e 500 -c 1 -i 60 -a 1 -x {0.0 2.0 30 ------- null}
+ -t 0.4 -s 1 -d 2 -p cbr -e 500 -c 2 -i 61 -a 2 -x {1.0 2.0 30 ------- null}
+ -t 0.41 -s 0 -d 2 -p cbr -e 500 -c 1 -i 62 -a 1 -x {0.0 2.0 31 ------- null}
+ -t 0.41 -s 1 -d 2 -p cbr -e 500 -c 2 -i 63 -a 2 -x {1.0 2.0 31 ------- null}
r -t 0.42 -s 0 -d 2 -p cbr -e 500 -c 1 -i 20 -a 1 -x {0.0 2.0 10 ------- null}
r -t 0.42 -s 1 -d 2 -p cbr -e 500 -c 2 -i 21 -a 2 -x {1.0 2.0 10 ------- null}
- -t 0.42 -s 0 -d 2 -p cbr -e 500 -c 1 -i 32 -a 1 -x {0.0 2.0 16 ------- null}
h -t 0.42 -s 0 -d 2 -p cbr -e 500 -c 1 -i 32 -a 1 -x {0.0 2.0 -1 ------- null}
- -t 0.42 -s 1 -d 2 -p cbr -e 500 -c 2 -i 33 -a 2 -x {1.0 2.0 16 ------- null}
h -t 0.42 -s 1 -d 2 -p cbr -e 500 -c 2 -i 33 -a 2 -x {1.0 2.0 -1 ------- null}
+ -t 0.42 -s 0 -d 2 -p cbr -e 500 -c 1 -i 64 -a 1 -x {0.0 2.0 32 ------- null}
+ -t 0.42 -s 1 -d 2 -p cbr -e 500 -c 2 -i 65 -a 2 -x {1.0 2.0 32 ------- null}
+ -t 0.43 -s 0 -d 2 -p cbr -e 500 -c 1 -i 66 -a 1 -x {0.0 2.0 33 ------- null}
+ -t 0.43 -s 1 -d 2 -p cbr -e 500 -c 2 -i 67 -a 2 -x {1.0 2.0 33 ------- null}
r -t 0.44 -s 0 -d 2 -p cbr -e 500 -c 1 -i 22 -a 1 -x {0.0 2.0 11 ------- null}
r -t 0.44 -s 1 -d 2 -p cbr -e 500 -c 2 -i 23 -a 2 -x {1.0 2.0 11 ------- null}
- -t 0.44 -s 0 -d 2 -p cbr -e 500 -c 1 -i 34 -a 1 -x {0.0 2.0 17 ------- null}
h -t 0.44 -s 0 -d 2 -p cbr -e 500 -c 1 -i 34 -a 1 -x {0.0 2.0 -1 ------- null}
- -t 0.44 -s 1 -d 2 -p cbr -e 500 -c 2 -i 35 -a 2 -x {1.0 2.0 17 ------- null}
h -t 0.44 -s 1 -d 2 -p cbr -e 500 -c 2 -i 35 -a 2 -x {1.0 2.0 -1 ------- null}
+ -t 0.44 -s 0 -d 2 -p cbr -e 500 -c 1 -i 68 -a 1 -x {0.0 2.0 34 ------- null}
+ -t 0.44 -s 1 -d 2 -p cbr -e 500 -c 2 -i 69 -a 2 -x {1.0 2.0 34 ------- null}
+ -t 0.45 -s 0 -d 2 -p cbr -e 500 -c 1 -i 70 -a 1 -x {0.0 2.0 35 ------- null}
+ -t 0.45 -s 1 -d 2 -p cbr -e 500 -c 2 -i 71 -a 2 -x {1.0 2.0 35 ------- null}
r -t 0.46 -s 0 -d 2 -p cbr -e 500 -c 1 -i 24 -a 1 -x {0.0 2.0 12 ------- null}
r -t 0.46 -s 1 -d 2 -p cbr -e 500 -c 2 -i 25 -a 2 -x {1.0 2.0 12 ------- null}
- -t 0.46 -s 0 -d 2 -p cbr -e 500 -c 1 -i 36 -a 1 -x {0.0 2.0 18 ------- null}
h -t 0.46 -s 0 -d 2 -p cbr -e 500 -c 1 -i 36 -a 1 -x {0.0 2.0 -1 ------- null}
- -t 0.46 -s 1 -d 2 -p cbr -e 500 -c 2 -i 37 -a 2 -x {1.0 2.0 18 ------- null}
h -t 0.46 -s 1 -d 2 -p cbr -e 500 -c 2 -i 37 -a 2 -x {1.0 2.0 -1 ------- null}
+ -t 0.46 -s 0 -d 2 -p cbr -e 500 -c 1 -i 72 -a 1 -x {0.0 2.0 36 ------- null}
+ -t 0.46 -s 1 -d 2 -p cbr -e 500 -c 2 -i 73 -a 2 -x {1.0 2.0 36 ------- null}
+ -t 0.47 -s 0 -d 2 -p cbr -e 500 -c 1 -i 74 -a 1 -x {0.0 2.0 37 ------- null}
+ -t 0.47 -s 1 -d 2 -p cbr -e 500 -c 2 -i 75 -a 2 -x {1.0 2.0 37 ------- null}
r -t 0.48 -s 0 -d 2 -p cbr -e 500 -c 1 -i 26 -a 1 -x {0.0 2.0 13 ------- null}
r -t 0.48 -s 1 -d 2 -p cbr -e 500 -c 2 -i 27 -a 2 -x {1.0 2.0 13 ------- null}
- -t 0.48 -s 0 -d 2 -p cbr -e 500 -c 1 -i 38 -a 1 -x {0.0 2.0 19 ------- null}
h -t 0.48 -s 0 -d 2 -p cbr -e 500 -c 1 -i 38 -a 1 -x {0.0 2.0 -1 ------- null}
- -t 0.48 -s 1 -d 2 -p cbr -e 500 -c 2 -i 39 -a 2 -x {1.0 2.0 19 ------- null}
h -t 0.48 -s 1 -d 2 -p cbr -e 500 -c 2 -i 39 -a 2 -x {1.0 2.0 -1 ------- null}
+ -t 0.48 -s 0 -d 2 -p cbr -e 500 -c 1 -i 76 -a 1 -x {0.0 2.0 38 ------- null}
+ -t 0.48 -s 1 -d 2 -p cbr -e 500 -c 2 -i 77 -a 2 -x {1.0 2.0 38 ------- null}
+ -t 0.49 -s 0 -d 2 -p cbr -e 500 -c 1 -i 78 -a 1 -x {0.0 2.0 39 ------- null}
+ -t 0.49 -s 1 -d 2 -p cbr -e 500 -c 2 -i 79 -a 2 -x {1.0 2.0 39 ------- null}
r -t 0.5 -s 0 -d 2 -p cbr -e 500 -c 1 -i 28 -a 1 -x {0.0 2.0 14 ------- null}
r -t 0.5 -s 1 -d 2 -p cbr -e 500 -c 2 -i 29 -a 2 -x {1.0 2.0 14 ------- null}
- -t 0.5 -s 0 -d 2 -p cbr -e 500 -c 1 -i 40 -a 1 -x {0.0 2.0 20 ------- null}
h -t 0.5 -s 0 -d 2 -p cbr -e 500 -c 1 -i 40 -a 1 -x {0.0 2.0 -1 ------- null}
- -t 0.5 -s 1 -d 2 -p cbr -e 500 -c 2 -i 41 -a 2 -x {1.0 2.0 20 ------- null}
h -t 0.5 -s 1 -d 2 -p cbr -e 500 -c 2 -i 41 -a 2 -x {1.0 2.0 -1 ------- null}
+ -t 0.5 -s 0 -d 2 -p cbr -e 500 -c 1 -i 80 -a 1 -x {0.0 2.0 40 ------- null}
+ -t 0.5 -s 1 -d 2 -p cbr -e 500 -c 2 -i 81 -a 2 -x {1.0 2.0 40 ------- null}
+ -t 0.51 -s 0 -d 2 -p cbr -e 500 -c 1 -i 82 -a 1 -x {0.0 2.0 41 ------- null}
+ -t 0.51 -s 1 -d 2 -p cbr -e 500 -c 2 -i 83 -a 2 -x {1.0 2.0 41 ------- null}
r -t 0.52 -s 0 -d 2 -p cbr -e 500 -c 1 -i 30 -a 1 -x {0.0 2.0 15 ------- null}
r -t 0.52 -s 1 -d 2 -p cbr -e 500 -c 2 -i 31 -a 2 -x {1.0 2.0 15 ------- null}
- -t 0.52 -s 0 -d 2 -p cbr -e 500 -c 1 -i 42 -a 1 -x {0.0 2.0 21 ------- null}
h -t 0.52 -s 0 -d 2 -p cbr -e 500 -c 1 -i 42 -a 1 -x {0.0 2.0 -1 ------- null}
- -t 0.52 -s 1 -d 2 -p cbr -e 500 -c 2 -i 43 -a 2 -x {1.0 2.0 21 ------- null}
h -t 0.52 -s 1 -d 2 -p cbr -e 500 -c 2 -i 43 -a 2 -x {1.0 2.0 -1 ------- null}
+ -t 0.52 -s 0 -d 2 -p cbr -e 500 -c 1 -i 84 -a 1 -x {0.0 2.0 42 ------- null}
+ -t 0.52 -s 1 -d 2 -p cbr -e 500 -c 2 -i 85 -a 2 -x {1.0 2.0 42 ------- null}
+ -t 0.53 -s 0 -d 2 -p cbr -e 500 -c 1 -i 86 -a 1 -x {0.0 2.0 43 ------- null}
+ -t 0.53 -s 1 -d 2 -p cbr -e 500 -c 2 -i 87 -a 2 -x {1.0 2.0 43 ------- null}
r -t 0.54 -s 0 -d 2 -p cbr -e 500 -c 1 -i 32 -a 1 -x {0.0 2.0 16 ------- null}
r -t 0.54 -s 1 -d 2 -p cbr -e 500 -c 2 -i 33 -a 2 -x {1.0 2.0 16 ------- null}
- -t 0.54 -s 0 -d 2 -p cbr -e 500 -c 1 -i 44 -a 1 -x {0.0 2.0 22 ------- null}
h -t 0.54 -s 0 -d 2 -p cbr -e 500 -c 1 -i 44 -a 1 -x {0.0 2.0 -1 ------- null}
- -t 0.54 -s 1 -d 2 -p cbr -e 500 -c 2 -i 45 -a 2 -x {1.0 2.0 22 ------- null}
h -t 0.54 -s 1 -d 2 -p cbr -e 500 -c 2 -i 45 -a 2 -x {1.0 2.0 -1 ------- null}
+ -t 0.54 -s 0 -d 2 -p cbr -e 500 -c 1 -i 88 -a 1 -x {0.0 2.0 44 ------- null}
+ -t 0.54 -s 1 -d 2 -p cbr -e 500 -c 2 -i 89 -a 2 -x {1.0 2.0 44 ------- null}
+ -t 0.55 -s 0 -d 2 -p cbr -e 500 -c 1 -i 90 -a 1 -x {0.0 2.0 45 ------- null}
+ -t 0.55 -s 1 -d 2 -p cbr -e 500 -c 2 -i 91 -a 2 -x {1.0 2.0 45 ------- null}
r -t 0.56 -s 0 -d 2 -p cbr -e 500 -c 1 -i 34 -a 1 -x {0.0 2.0 17 ------- null}
r -t 0.56 -s 1 -d 2 -p cbr -e 500 -c 2 -i 35 -a 2 -x {1.0 2.0 17 ------- null}
- -t 0.56 -s 0 -d 2 -p cbr -e 500 -c 1 -i 46 -a 1 -x {0.0 2.0 23 ------- null}
h -t 0.56 -s 0 -d 2 -p cbr -e 500 -c 1 -i 46 -a 1 -x {0.0 2.0 -1 ------- null}
- -t 0.56 -s 1 -d 2 -p cbr -e 500 -c 2 -i 47 -a 2 -x {1.0 2.0 23 ------- null}
h -t 0.56 -s 1 -d 2 -p cbr -e 500 -c 2 -i 47 -a 2 -x {1.0 2.0 -1 ------- null}
+ -t 0.56 -s 0 -d 2 -p cbr -e 500 -c 1 -i 92 -a 1 -x {0.0 2.0 46 ------- null}
+ -t 0.56 -s 1 -d 2 -p cbr -e 500 -c 2 -i 93 -a 2 -x {1.0 2.0 46 ------- null}
+ -t 0.57 -s 0 -d 2 -p cbr -e 500 -c 1 -i 94 -a 1 -x {0.0 2.0 47 ------- null}
+ -t 0.57 -s 1 -d 2 -p cbr -e 500 -c 2 -i 95 -a 2 -x {1.0 2.0 47 ------- null}
r -t 0.58 -s 0 -d 2 -p cbr -e 500 -c 1 -i 36 -a 1 -x {0.0 2.0 18 ------- null}
r -t 0.58 -s 1 -d 2 -p cbr -e 500 -c 2 -i 37 -a 2 -x {1.0 2.0 18 ------- null}
- -t 0.58 -s 0 -d 2 -p cbr -e 500 -c 1 -i 48 -a 1 -x {0.0 2.0 24 ------- null}
h -t 0.58 -s 0 -d 2 -p cbr -e 500 -c 1 -i 48 -a 1 -x {0.0 2.0 -1 ------- null}
- -t 0.58 -s 1 -d 2 -p cbr -e 500 -c 2 -i 49 -a 2 -x {1.0 2.0 24 ------- null}
h -t 0.58 -s 1 -d 2 -p cbr -e 500 -c 2 -i 49 -a 2 -x {1.0 2.0 -1 ------- null}
+ -t 0.58 -s 0 -d 2 -p cbr -e 500 -c 1 -i 96 -a 1 -x {0.0 2.0 48 ------- null}
+ -t 0.58 -s 1 -d 2 -p cbr -e 500 -c 2 -i 97 -a 2 -x {1.0 2.0 48 ------- null}
+ -t 0.59 -s 0 -d 2 -p cbr -e 500 -c 1 -i 98 -a 1 -x {0.0 2.0 49 ------- null}
+ -t 0.59 -s 1 -d 2 -p cbr -e 500 -c 2 -i 99 -a 2 -x {1.0 2.0 49 ------- null}
r -t 0.6 -s 0 -d 2 -p cbr -e 500 -c 1 -i 38 -a 1 -x {0.0 2.0 19 ------- null}
r -t 0.6 -s 1 -d 2 -p cbr -e 500 -c 2 -i 39 -a 2 -x {1.0 2.0 19 ------- null}
- -t 0.6 -s 0 -d 2 -p cbr -e 500 -c 1 -i 50 -a 1 -x {0.0 2.0 25 ------- null}
h -t 0.6 -s 0 -d 2 -p cbr -e 500 -c 1 -i 50 -a 1 -x {0.0 2.0 -1 ------- null}
- -t 0.6 -s 1 -d 2 -p cbr -e 500 -c 2 -i 51 -a 2 -x {1.0 2.0 25 ------- null}
h -t 0.6 -s 1 -d 2 -p cbr -e 500 -c 2 -i 51 -a 2 -x {1.0 2.0 -1 ------- null}
+ -t 0.6 -s 0 -d 2 -p cbr -e 500 -c 1 -i 100 -a 1 -x {0.0 2.0 50 ------- null}
+ -t 0.6 -s 1 -d 2 -p cbr -e 500 -c 2 -i 101 -a 2 -x {1.0 2.0 50 ------- null}
+ -t 0.61 -s 0 -d 2 -p cbr -e 500 -c 1 -i 102 -a 1 -x {0.0 2.0 51 ------- null}
+ -t 0.61 -s 1 -d 2 -p cbr -e 500 -c 2 -i 103 -a 2 -x {1.0 2.0 51 ------- null}
r -t 0.62 -s 0 -d 2 -p cbr -e 500 -c 1 -i 40 -a 1 -x {0.0 2.0 20 ------- null}
r -t 0.62 -s 1 -d 2 -p cbr -e 500 -c 2 -i 41 -a 2 -x {1.0 2.0 20 ------- null}
- -t 0.62 -s 0 -d 2 -p cbr -e 500 -c 1 -i 52 -a 1 -x {0.0 2.0 26 ------- null}
h -t 0.62 -s 0 -d 2 -p cbr -e 500 -c 1 -i 52 -a 1 -x {0.0 2.0 -1 ------- null}
- -t 0.62 -s 1 -d 2 -p cbr -e 500 -c 2 -i 53 -a 2 -x {1.0 2.0 26 ------- null}
h -t 0.62 -s 1 -d 2 -p cbr -e 500 -c 2 -i 53 -a 2 -x {1.0 2.0 -1 ------- null}
+ -t 0.62 -s 0 -d 2 -p cbr -e 500 -c 1 -i 104 -a 1 -x {0.0 2.0 52 ------- null}
+ -t 0.62 -s 1 -d 2 -p cbr -e 500 -c 2 -i 105 -a 2 -x {1.0 2.0 52 ------- null}
+ -t 0.63 -s 0 -d 2 -p cbr -e 500 -c 1 -i 106 -a 1 -x {0.0 2.0 53 ------- null}
+ -t 0.63 -s 1 -d 2 -p cbr -e 500 -c 2 -i 107 -a 2 -x {1.0 2.0 53 ------- null}
r -t 0.64 -s 0 -d 2 -p cbr -e 500 -c 1 -i 42 -a 1 -x {0.0 2.0 21 ------- null}
r -t 0.64 -s 1 -d 2 -p cbr -e 500 -c 2 -i 43 -a 2 -x {1.0 2.0 21 ------- null}
- -t 0.64 -s 0 -d 2 -p cbr -e 500 -c 1 -i 54 -a 1 -x {0.0 2.0 27 ------- null}
h -t 0.64 -s 0 -d 2 -p cbr -e 500 -c 1 -i 54 -a 1 -x {0.0 2.0 -1 ------- null}
- -t 0.64 -s 1 -d 2 -p cbr -e 500 -c 2 -i 55 -a 2 -x {1.0 2.0 27 ------- null}
h -t 0.64 -s 1 -d 2 -p cbr -e 500 -c 2 -i 55 -a 2 -x {1.0 2.0 -1 ------- null}
+ -t 0.64 -s 0 -d 2 -p cbr -e 500 -c 1 -i 108 -a 1 -x {0.0 2.0 54 ------- null}
+ -t 0.64 -s 1 -d 2 -p cbr -e 500 -c 2 -i 109 -a 2 -x {1.0 2.0 54 ------- null}
+ -t 0.65 -s 0 -d 2 -p cbr -e 500 -c 1 -i 110 -a 1 -x {0.0 2.0 55 ------- null}
+ -t 0.65 -s 1 -d 2 -p cbr -e 500 -c 2 -i 111 -a 2 -x {1.0 2.0 55 ------- null}
r -t 0.66 -s 0 -d 2 -p cbr -e 500 -c 1 -i 44 -a 1 -x {0.0 2.0 22 ------- null}
r -t 0.66 -s 1 -d 2 -p cbr -e 500 -c 2 -i 45 -a 2 -x {1.0 2.0 22 ------- null}
- -t 0.66 -s 0 -d 2 -p cbr -e 500 -c 1 -i 56 -a 1 -x {0.0 2.0 28 ------- null}
h -t 0.66 -s 0 -d 2 -p cbr -e 500 -c 1 -i 56 -a 1 -x {0.0 2.0 -1 ------- null}
- -t 0.66 -s 1 -d 2 -p cbr -e 500 -c 2 -i 57 -a 2 -x {1.0 2.0 28 ------- null}
h -t 0.66 -s 1 -d 2 -p cbr -e 500 -c 2 -i 57 -a 2 -x {1.0 2.0 -1 ------- null}
+ -t 0.66 -s 0 -d 2 -p cbr -e 500 -c 1 -i 112 -a 1 -x {0.0 2.0 56 ------- null}
+ -t 0.66 -s 1 -d 2 -p cbr -e 500 -c 2 -i 113 -a 2 -x {1.0 2.0 56 ------- null}
+ -t 0.67 -s 0 -d 2 -p cbr -e 500 -c 1 -i 114 -a 1 -x {0.0 2.0 57 ------- null}
+ -t 0.67 -s 1 -d 2 -p cbr -e 500 -c 2 -i 115 -a 2 -x {1.0 2.0 57 ------- null}
r -t 0.68 -s 0 -d 2 -p cbr -e 500 -c 1 -i 46 -a 1 -x {0.0 2.0 23 ------- null}
r -t 0.68 -s 1 -d 2 -p cbr -e 500 -c 2 -i 47 -a 2 -x {1.0 2.0 23 ------- null}
- -t 0.68 -s 0 -d 2 -p cbr -e 500 -c 1 -i 58 -a 1 -x {0.0 2.0 29 ------- null}
h -t 0.68 -s 0 -d 2 -p cbr -e 500 -c 1 -i 58 -a 1 -x {0.0 2.0 -1 ------- null}
- -t 0.68 -s 1 -d 2 -p cbr -e 500 -c 2 -i 59 -a 2 -x {1.0 2.0 29 ------- null}
h -t 0.68 -s 1 -d 2 -p cbr -e 500 -c 2 -i 59 -a 2 -x {1.0 2.0 -1 ------- null}
+ -t 0.68 -s 0 -d 2 -p cbr -e 500 -c 1 -i 116 -a 1 -x {0.0 2.0 58 ------- null}
+ -t 0.68 -s 1 -d 2 -p cbr -e 500 -c 2 -i 117 -a 2 -x {1.0 2.0 58 ------- null}
+ -t 0.690000000000001 -s 0 -d 2 -p cbr -e 500 -c 1 -i 118 -a 1 -x {0.0 2.0 59 ------- null}
+ -t 0.690000000000001 -s 1 -d 2 -p cbr -e 500 -c 2 -i 119 -a 2 -x {1.0 2.0 59 ------- null}
r -t 0.7 -s 0 -d 2 -p cbr -e 500 -c 1 -i 48 -a 1 -x {0.0 2.0 24 ------- null}
r -t 0.7 -s 1 -d 2 -p cbr -e 500 -c 2 -i 49 -a 2 -x {1.0 2.0 24 ------- null}
- -t 0.7 -s 0 -d 2 -p cbr -e 500 -c 1 -i 60 -a 1 -x {0.0 2.0 30 ------- null}
h -t 0.7 -s 0 -d 2 -p cbr -e 500 -c 1 -i 60 -a 1 -x {0.0 2.0 -1 ------- null}
- -t 0.7 -s 1 -d 2 -p cbr -e 500 -c 2 -i 61 -a 2 -x {1.0 2.0 30 ------- null}
h -t 0.7 -s 1 -d 2 -p cbr -e 500 -c 2 -i 61 -a 2 -x {1.0 2.0 -1 ------- null}
+ -t 0.700000000000001 -s 0 -d 2 -p cbr -e 500 -c 1 -i 120 -a 1 -x {0.0 2.0 60 ------- null}
+ -t 0.700000000000001 -s 1 -d 2 -p cbr -e 500 -c 2 -i 121 -a 2 -x {1.0 2.0 60 ------- null}
+ -t 0.710000000000001 -s 0 -d 2 -p cbr -e 500 -c 1 -i 122 -a 1 -x {0.0 2.0 61 ------- null}
+ -t 0.710000000000001 -s 1 -d 2 -p cbr -e 500 -c 2 -i 123 -a 2 -x {1.0 2.0 61 ------- null}
r -t 0.72 -s 0 -d 2 -p cbr -e 500 -c 1 -i 50 -a 1 -x {0.0 2.0 25 ------- null}
r -t 0.72 -s 1 -d 2 -p cbr -e 500 -c 2 -i 51 -a 2 -x {1.0 2.0 25 ------- null}
- -t 0.72 -s 0 -d 2 -p cbr -e 500 -c 1 -i 62 -a 1 -x {0.0 2.0 31 ------- null}
h -t 0.72 -s 0 -d 2 -p cbr -e 500 -c 1 -i 62 -a 1 -x {0.0 2.0 -1 ------- null}
- -t 0.72 -s 1 -d 2 -p cbr -e 500 -c 2 -i 63 -a 2 -x {1.0 2.0 31 ------- null}
h -t 0.72 -s 1 -d 2 -p cbr -e 500 -c 2 -i 63 -a 2 -x {1.0 2.0 -1 ------- null}
+ -t 0.720000000000001 -s 0 -d 2 -p cbr -e 500 -c 1 -i 124 -a 1 -x {0.0 2.0 62 ------- null}
+ -t 0.720000000000001 -s 1 -d 2 -p cbr -e 500 -c 2 -i 125 -a 2 -x {1.0 2.0 62 ------- null}
+ -t 0.730000000000001 -s 0 -d 2 -p cbr -e 500 -c 1 -i 126 -a 1 -x {0.0 2.0 63 ------- null}
+ -t 0.730000000000001 -s 1 -d 2 -p cbr -e 500 -c 2 -i 127 -a 2 -x {1.0 2.0 63 ------- null}
r -t 0.74 -s 0 -d 2 -p cbr -e 500 -c 1 -i 52 -a 1 -x {0.0 2.0 26 ------- null}
r -t 0.74 -s 1 -d 2 -p cbr -e 500 -c 2 -i 53 -a 2 -x {1.0 2.0 26 ------- null}
- -t 0.74 -s 0 -d 2 -p cbr -e 500 -c 1 -i 64 -a 1 -x {0.0 2.0 32 ------- null}
h -t 0.74 -s 0 -d 2 -p cbr -e 500 -c 1 -i 64 -a 1 -x {0.0 2.0 -1 ------- null}
- -t 0.74 -s 1 -d 2 -p cbr -e 500 -c 2 -i 65 -a 2 -x {1.0 2.0 32 ------- null}
h -t 0.74 -s 1 -d 2 -p cbr -e 500 -c 2 -i 65 -a 2 -x {1.0 2.0 -1 ------- null}
+ -t 0.740000000000001 -s 0 -d 2 -p cbr -e 500 -c 1 -i 128 -a 1 -x {0.0 2.0 64 ------- null}
+ -t 0.740000000000001 -s 1 -d 2 -p cbr -e 500 -c 2 -i 129 -a 2 -x {1.0 2.0 64 ------- null}
+ -t 0.750000000000001 -s 0 -d 2 -p cbr -e 500 -c 1 -i 130 -a 1 -x {0.0 2.0 65 ------- null}
+ -t 0.750000000000001 -s 1 -d 2 -p cbr -e 500 -c 2 -i 131 -a 2 -x {1.0 2.0 65 ------- null}
r -t 0.76 -s 0 -d 2 -p cbr -e 500 -c 1 -i 54 -a 1 -x {0.0 2.0 27 ------- null}
r -t 0.76 -s 1 -d 2 -p cbr -e 500 -c 2 -i 55 -a 2 -x {1.0 2.0 27 ------- null}
- -t 0.76 -s 0 -d 2 -p cbr -e 500 -c 1 -i 66 -a 1 -x {0.0 2.0 33 ------- null}
h -t 0.76 -s 0 -d 2 -p cbr -e 500 -c 1 -i 66 -a 1 -x {0.0 2.0 -1 ------- null}
- -t 0.76 -s 1 -d 2 -p cbr -e 500 -c 2 -i 67 -a 2 -x {1.0 2.0 33 ------- null}
h -t 0.76 -s 1 -d 2 -p cbr -e 500 -c 2 -i 67 -a 2 -x {1.0 2.0 -1 ------- null}
+ -t 0.760000000000001 -s 0 -d 2 -p cbr -e 500 -c 1 -i 132 -a 1 -x {0.0 2.0 66 ------- null}
+ -t 0.760000000000001 -s 1 -d 2 -p cbr -e 500 -c 2 -i 133 -a 2 -x {1.0 2.0 66 ------- null}
+ -t 0.770000000000001 -s 0 -d 2 -p cbr -e 500 -c 1 -i 134 -a 1 -x {0.0 2.0 67 ------- null}
+ -t 0.770000000000001 -s 1 -d 2 -p cbr -e 500 -c 2 -i 135 -a 2 -x {1.0 2.0 67 ------- null}
r -t 0.78 -s 0 -d 2 -p cbr -e 500 -c 1 -i 56 -a 1 -x {0.0 2.0 28 ------- null}
r -t 0.78 -s 1 -d 2 -p cbr -e 500 -c 2 -i 57 -a 2 -x {1.0 2.0 28 ------- null}
- -t 0.78 -s 0 -d 2 -p cbr -e 500 -c 1 -i 68 -a 1 -x {0.0 2.0 34 ------- null}
h -t 0.78 -s 0 -d 2 -p cbr -e 500 -c 1 -i 68 -a 1 -x {0.0 2.0 -1 ------- null}
- -t 0.78 -s 1 -d 2 -p cbr -e 500 -c 2 -i 69 -a 2 -x {1.0 2.0 34 ------- null}
h -t 0.78 -s 1 -d 2 -p cbr -e 500 -c 2 -i 69 -a 2 -x {1.0 2.0 -1 ------- null}
+ -t 0.780000000000001 -s 0 -d 2 -p cbr -e 500 -c 1 -i 136 -a 1 -x {0.0 2.0 68 ------- null}
+ -t 0.780000000000001 -s 1 -d 2 -p cbr -e 500 -c 2 -i 137 -a 2 -x {1.0 2.0 68 ------- null}
+ -t 0.790000000000001 -s 0 -d 2 -p cbr -e 500 -c 1 -i 138 -a 1 -x {0.0 2.0 69 ------- null}
+ -t 0.790000000000001 -s 1 -d 2 -p cbr -e 500 -c 2 -i 139 -a 2 -x {1.0 2.0 69 ------- null}
r -t 0.8 -s 0 -d 2 -p cbr -e 500 -c 1 -i 58 -a 1 -x {0.0 2.0 29 ------- null}
r -t 0.8 -s 1 -d 2 -p cbr -e 500 -c 2 -i 59 -a 2 -x {1.0 2.0 29 ------- null}
- -t 0.8 -s 0 -d 2 -p cbr -e 500 -c 1 -i 70 -a 1 -x {0.0 2.0 35 ------- null}
h -t 0.8 -s 0 -d 2 -p cbr -e 500 -c 1 -i 70 -a 1 -x {0.0 2.0 -1 ------- null}
- -t 0.8 -s 1 -d 2 -p cbr -e 500 -c 2 -i 71 -a 2 -x {1.0 2.0 35 ------- null}
h -t 0.8 -s 1 -d 2 -p cbr -e 500 -c 2 -i 71 -a 2 -x {1.0 2.0 -1 ------- null}
+ -t 0.800000000000001 -s 0 -d 2 -p cbr -e 500 -c 1 -i 140 -a 1 -x {0.0 2.0 70 ------- null}
+ -t 0.800000000000001 -s 1 -d 2 -p cbr -e 500 -c 2 -i 141 -a 2 -x {1.0 2.0 70 ------- null}
+ -t 0.810000000000001 -s 0 -d 2 -p cbr -e 500 -c 1 -i 142 -a 1 -x {0.0 2.0 71 ------- null}
+ -t 0.810000000000001 -s 1 -d 2 -p cbr -e 500 -c 2 -i 143 -a 2 -x {1.0 2.0 71 ------- null}
r -t 0.82 -s 0 -d 2 -p cbr -e 500 -c 1 -i 60 -a 1 -x {0.0 2.0 30 ------- null}
r -t 0.82 -s 1 -d 2 -p cbr -e 500 -c 2 -i 61 -a 2 -x {1.0 2.0 30 ------- null}
- -t 0.82 -s 0 -d 2 -p cbr -e 500 -c 1 -i 72 -a 1 -x {0.0 2.0 36 ------- null}
h -t 0.82 -s 0 -d 2 -p cbr -e 500 -c 1 -i 72 -a 1 -x {0.0 2.0 -1 ------- null}
- -t 0.82 -s 1 -d 2 -p cbr -e 500 -c 2 -i 73 -a 2 -x {1.0 2.0 36 ------- null}
h -t 0.82 -s 1 -d 2 -p cbr -e 500 -c 2 -i 73 -a 2 -x {1.0 2.0 -1 ------- null}
+ -t 0.820000000000001 -s 0 -d 2 -p cbr -e 500 -c 1 -i 144 -a 1 -x {0.0 2.0 72 ------- null}
+ -t 0.820000000000001 -s 1 -d 2 -p cbr -e 500 -c 2 -i 145 -a 2 -x {1.0 2.0 72 ------- null}
+ -t 0.830000000000001 -s 0 -d 2 -p cbr -e 500 -c 1 -i 146 -a 1 -x {0.0 2.0 73 ------- null}
+ -t 0.830000000000001 -s 1 -d 2 -p cbr -e 500 -c 2 -i 147 -a 2 -x {1.0 2.0 73 ------- null}
r -t 0.84 -s 0 -d 2 -p cbr -e 500 -c 1 -i 62 -a 1 -x {0.0 2.0 31 ------- null}
r -t 0.84 -s 1 -d 2 -p cbr -e 500 -c 2 -i 63 -a 2 -x {1.0 2.0 31 ------- null}
- -t 0.84 -s 0 -d 2 -p cbr -e 500 -c 1 -i 74 -a 1 -x {0.0 2.0 37 ------- null}
h -t 0.84 -s 0 -d 2 -p cbr -e 500 -c 1 -i 74 -a 1 -x {0.0 2.0 -1 ------- null}
- -t 0.84 -s 1 -d 2 -p cbr -e 500 -c 2 -i 75 -a 2 -x {1.0 2.0 37 ------- null}
h -t 0.84 -s 1 -d 2 -p cbr -e 500 -c 2 -i 75 -a 2 -x {1.0 2.0 -1 ------- null}
+ -t 0.840000000000001 -s 0 -d 2 -p cbr -e 500 -c 1 -i 148 -a 1 -x {0.0 2.0 74 ------- null}
+ -t 0.840000000000001 -s 1 -d 2 -p cbr -e 500 -c 2 -i 149 -a 2 -x {1.0 2.0 74 ------- null}
+ -t 0.850000000000001 -s 0 -d 2 -p cbr -e 500 -c 1 -i 150 -a 1 -x {0.0 2.0 75 ------- null}
+ -t 0.850000000000001 -s 1 -d 2 -p cbr -e 500 -c 2 -i 151 -a 2 -x {1.0 2.0 75 ------- null}