+ 0.1 0 2 cbr 500 ------- 1 0.0 2.0 0 0
- 0.1 0 2 cbr 500 ------- 1 0.0 2.0 0 0
+ 0.1 1 2 cbr 500 ------- 2 1.0 2.0 0 1
- 0.1 1 2 cbr 500 ------- 2 1.0 2.0 0 1
+ 0.11 0 2 cbr 500 ------- 1 0.0 2.0 1 2
+ 0.11 1 2 cbr 500 ------- 2 1.0 2.0 1 3
+ 0.12 0 2 cbr 500 ------- 1 0.0 2.0 2 4
+ 0.12 1 2 cbr 500 ------- 2 1.0 2.0 2 5
- 0.12 0 2 cbr 500 ------- 1 0.0 2.0 1 2
- 0.12 1 2 cbr 500 ------- 2 1.0 2.0 1 3
+ 0.13 0 2 cbr 500 ------- 1 0.0 2.0 3 6
+ 0.13 1 2 cbr 500 ------- 2 1.0 2.0 3 7
- 0.14 0 2 cbr 500 ------- 1 0.0 2.0 2 4
- 0.14 1 2 cbr 500 ------- 2 1.0 2.0 2 5
+ 0.14 0 2 cbr 500 ------- 1 0.0 2.0 4 8
+ 0.14 1 2 cbr 500 ------- 2 1.0 2.0 4 9
+ 0.15 0 2 cbr 500 ------- 1 0.0 2.0 5 10
+ 0.15 1 2 cbr 500 ------- 2 1.0 2.0 5 11
- 0.16 0 2 cbr 500 ------- 1 0.0 2.0 3 6
- 0.16 1 2 cbr 500 ------- 2 1.0 2.0 3 7
+ 0.16 0 2 cbr 500 ------- 1 0.0 2.0 6 12
+ 0.16 1 2 cbr 500 ------- 2 1.0 2.0 6 13
+ 0.17 0 2 cbr 500 ------- 1 0.0 2.0 7 14
+ 0.17 1 2 cbr 500 ------- 2 1.0 2.0 7 15
- 0.18 0 2 cbr 500 ------- 1 0.0 2.0 4 8
- 0.18 1 2 cbr 500 ------- 2 1.0 2.0 4 9
+ 0.18 0 2 cbr 500 ------- 1 0.0 2.0 8 16
+ 0.18 1 2 cbr 500 ------- 2 1.0 2.0 8 17
+ 0.19 0 2 cbr 500 ------- 1 0.0 2.0 9 18
+ 0.19 1 2 cbr 500 ------- 2 1.0 2.0 9 19
- 0.2 0 2 cbr 500 ------- 1 0.0 2.0 5 10
- 0.2 1 2 cbr 500 ------- 2 1.0 2.0 5 11
+ 0.2 0 2 cbr 500 ------- 1 0.0 2.0 10 20
+ 0.2 1 2 cbr 500 ------- 2 1.0 2.0 10 21
+ 0.21 0 2 cbr 500 ------- 1 0.0 2.0 11 22
+ 0.21 1 2 cbr 500 ------- 2 1.0 2.0 11 23
- 0.22 0 2 cbr 500 ------- 1 0.0 2.0 6 12
- 0.22 1 2 cbr 500 ------- 2 1.0 2.0 6 13
r 0.22 0 2 cbr 500 ------- 1 0.0 2.0 0 0
r 0.22 1 2 cbr 500 ------- 2 1.0 2.0 0 1
+ 0.22 0 2 cbr 500 ------- 1 0.0 2.0 12 24
+ 0.22 1 2 cbr 500 ------- 2 1.0 2.0 12 25
+ 0.23 0 2 cbr 500 ------- 1 0.0 2.0 13 26
+ 0.23 1 2 cbr 500 ------- 2 1.0 2.0 13 27
- 0.24 0 2 cbr 500 ------- 1 0.0 2.0 7 14
- 0.24 1 2 cbr 500 ------- 2 1.0 2.0 7 15
r 0.24 0 2 cbr 500 ------- 1 0.0 2.0 1 2
r 0.24 1 2 cbr 500 ------- 2 1.0 2.0 1 3
+ 0.24 0 2 cbr 500 ------- 1 0.0 2.0 14 28
+ 0.24 1 2 cbr 500 ------- 2 1.0 2.0 14 29
+ 0.25 0 2 cbr 500 ------- 1 0.0 2.0 15 30
+ 0.25 1 2 cbr 500 ------- 2 1.0 2.0 15 31
- 0.26 0 2 cbr 500 ------- 1 0.0 2.0 8 16
- 0.26 1 2 cbr 500 ------- 2 1.0 2.0 8 17
r 0.26 0 2 cbr 500 ------- 1 0.0 2.0 2 4
r 0.26 1 2 cbr 500 ------- 2 1.0 2.0 2 5
+ 0.26 0 2 cbr 500 ------- 1 0.0 2.0 16 32
+ 0.26 1 2 cbr 500 ------- 2 1.0 2.0 16 33
+ 0.27 0 2 cbr 500 ------- 1 0.0 2.0 17 34
+ 0.27 1 2 cbr 500 ------- 2 1.0 2.0 17 35
- 0.28 0 2 cbr 500 ------- 1 0.0 2.0 9 18
- 0.28 1 2 cbr 500 ------- 2 1.0 2.0 9 19
r 0.28 0 2 cbr 500 ------- 1 0.0 2.0 3 6
r 0.28 1 2 cbr 500 ------- 2 1.0 2.0 3 7
+ 0.28 0 2 cbr 500 ------- 1 0.0 2.0 18 36
+ 0.28 1 2 cbr 500 ------- 2 1.0 2.0 18 37
+ 0.29 0 2 cbr 500 ------- 1 0.0 2.0 19 38
+ 0.29 1 2 cbr 500 ------- 2 1.0 2.0 19 39
r 0.3 0 2 cbr 500 ------- 1 0.0 2.0 4 8
r 0.3 1 2 cbr 500 ------- 2 1.0 2.0 4 9
- 0.3 0 2 cbr 500 ------- 1 0.0 2.0 10 20
- 0.3 1 2 cbr 500 ------- 2 1.0 2.0 10 21
+ 0.3 0 2 cbr 500 ------- 1 0.0 2.0 20 40
+ 0.3 1 2 cbr 500 ------- 2 1.0 2.0 20 41
+ 0.31 0 2 cbr 500 ------- 1 0.0 2.0 21 42
+ 0.31 1 2 cbr 500 ------- 2 1.0 2.0 21 43
r 0.32 0 2 cbr 500 ------- 1 0.0 2.0 5 10
r 0.32 1 2 cbr 500 ------- 2 1.0 2.0 5 11
- 0.32 0 2 cbr 500 ------- 1 0.0 2.0 11 22
- 0.32 1 2 cbr 500 ------- 2 1.0 2.0 11 23
+ 0.32 0 2 cbr 500 ------- 1 0.0 2.0 22 44
+ 0.32 1 2 cbr 500 ------- 2 1.0 2.0 22 45
+ 0.33 0 2 cbr 500 ------- 1 0.0 2.0 23 46
+ 0.33 1 2 cbr 500 ------- 2 1.0 2.0 23 47
r 0.34 0 2 cbr 500 ------- 1 0.0 2.0 6 12
r 0.34 1 2 cbr 500 ------- 2 1.0 2.0 6 13
- 0.34 0 2 cbr 500 ------- 1 0.0 2.0 12 24
- 0.34 1 2 cbr 500 ------- 2 1.0 2.0 12 25
+ 0.34 0 2 cbr 500 ------- 1 0.0 2.0 24 48
+ 0.34 1 2 cbr 500 ------- 2 1.0 2.0 24 49
+ 0.35 0 2 cbr 500 ------- 1 0.0 2.0 25 50
+ 0.35 1 2 cbr 500 ------- 2 1.0 2.0 25 51
r 0.36 0 2 cbr 500 ------- 1 0.0 2.0 7 14
r 0.36 1 2 cbr 500 ------- 2 1.0 2.0 7 15
- 0.36 0 2 cbr 500 ------- 1 0.0 2.0 13 26
- 0.36 1 2 cbr 500 ------- 2 1.0 2.0 13 27
+ 0.36 0 2 cbr 500 ------- 1 0.0 2.0 26 52
+ 0.36 1 2 cbr 500 ------- 2 1.0 2.0 26 53
+ 0.37 0 2 cbr 500 ------- 1 0.0 2.0 27 54
+ 0.37 1 2 cbr 500 ------- 2 1.0 2.0 27 55
r 0.38 0 2 cbr 500 ------- 1 0.0 2.0 8 16
r 0.38 1 2 cbr 500 ------- 2 1.0 2.0 8 17
- 0.38 0 2 cbr 500 ------- 1 0.0 2.0 14 28
- 0.38 1 2 cbr 500 ------- 2 1.0 2.0 14 29
+ 0.38 0 2 cbr 500 ------- 1 0.0 2.0 28 56
+ 0.38 1 2 cbr 500 ------- 2 1.0 2.0 28 57
+ 0.39 0 2 cbr 500 ------- 1 0.0 2.0 29 58
+ 0.39 1 2 cbr 500 ------- 2 1.0 2.0 29 59
r 0.4 0 2 cbr 500 ------- 1 0.0 2.0 9 18
r 0.4 1 2 cbr 500 ------- 2 1.0 2.0 9 19
- 0.4 0 2 cbr 500 ------- 1 0.0 2.0 15 30
- 0.4 1 2 cbr 500 ------- 2 1.0 2.0 15 31
+ 0.4 0 2 cbr 500 ------- 1 0.0 2.0 30 60
+ 0.4 1 2 cbr 500 ------- 2 1.0 2.0 30 61
+ 0.41 0 2 cbr 500 ------- 1 0.0 2.0 31 62
+ 0.41 1 2 cbr 500 ------- 2 1.0 2.0 31 63
r 0.42 0 2 cbr 500 ------- 1 0.0 2.0 10 20
r 0.42 1 2 cbr 500 ------- 2 1.0 2.0 10 21
- 0.42 0 2 cbr 500 ------- 1 0.0 2.0 16 32
- 0.42 1 2 cbr 500 ------- 2 1.0 2.0 16 33
+ 0.42 0 2 cbr 500 ------- 1 0.0 2.0 32 64
+ 0.42 1 2 cbr 500 ------- 2 1.0 2.0 32 65
+ 0.43 0 2 cbr 500 ------- 1 0.0 2.0 33 66
+ 0.43 1 2 cbr 500 ------- 2 1.0 2.0 33 67
r 0.44 0 2 cbr 500 ------- 1 0.0 2.0 11 22
r 0.44 1 2 cbr 500 ------- 2 1.0 2.0 11 23
- 0.44 0 2 cbr 500 ------- 1 0.0 2.0 17 34
- 0.44 1 2 cbr 500 ------- 2 1.0 2.0 17 35
+ 0.44 0 2 cbr 500 ------- 1 0.0 2.0 34 68
+ 0.44 1 2 cbr 500 ------- 2 1.0 2.0 34 69
+ 0.45 0 2 cbr 500 ------- 1 0.0 2.0 35 70
+ 0.45 1 2 cbr 500 ------- 2 1.0 2.0 35 71
r 0.46 0 2 cbr 500 ------- 1 0.0 2.0 12 24
r 0.46 1 2 cbr 500 ------- 2 1.0 2.0 12 25
- 0.46 0 2 cbr 500 ------- 1 0.0 2.0 18 36
- 0.46 1 2 cbr 500 ------- 2 1.0 2.0 18 37
+ 0.46 0 2 cbr 500 ------- 1 0.0 2.0 36 72
+ 0.46 1 2 cbr 500 ------- 2 1.0 2.0 36 73
+ 0.47 0 2 cbr 500 ------- 1 0.0 2.0 37 74
+ 0.47 1 2 cbr 500 ------- 2 1.0 2.0 37 75
r 0.48 0 2 cbr 500 ------- 1 0.0 2.0 13 26
r 0.48 1 2 cbr 500 ------- 2 1.0 2.0 13 27
- 0.48 0 2 cbr 500 ------- 1 0.0 2.0 19 38
- 0.48 1 2 cbr 500 ------- 2 1.0 2.0 19 39
+ 0.48 0 2 cbr 500 ------- 1 0.0 2.0 38 76
+ 0.48 1 2 cbr 500 ------- 2 1.0 2.0 38 77
+ 0.49 0 2 cbr 500 ------- 1 0.0 2.0 39 78
+ 0.49 1 2 cbr 500 ------- 2 1.0 2.0 39 79
r 0.5 0 2 cbr 500 ------- 1 0.0 2.0 14 28
r 0.5 1 2 cbr 500 ------- 2 1.0 2.0 14 29
- 0.5 0 2 cbr 500 ------- 1 0.0 2.0 20 40
- 0.5 1 2 cbr 500 ------- 2 1.0 2.0 20 41
+ 0.5 0 2 cbr 500 ------- 1 0.0 2.0 40 80
+ 0.5 1 2 cbr 500 ------- 2 1.0 2.0 40 81
+ 0.51 0 2 cbr 500 ------- 1 0.0 2.0 41 82
+ 0.51 1 2 cbr 500 ------- 2 1.0 2.0 41 83
r 0.52 0 2 cbr 500 ------- 1 0.0 2.0 15 30
r 0.52 1 2 cbr 500 ------- 2 1.0 2.0 15 31
- 0.52 0 2 cbr 500 ------- 1 0.0 2.0 21 42
- 0.52 1 2 cbr 500 ------- 2 1.0 2.0 21 43
+ 0.52 0 2 cbr 500 ------- 1 0.0 2.0 42 84
+ 0.52 1 2 cbr 500 ------- 2 1.0 2.0 42 85
+ 0.53 0 2 cbr 500 ------- 1 0.0 2.0 43 86
+ 0.53 1 2 cbr 500 ------- 2 1.0 2.0 43 87
r 0.54 0 2 cbr 500 ------- 1 0.0 2.0 16 32
r 0.54 1 2 cbr 500 ------- 2 1.0 2.0 16 33
- 0.54 0 2 cbr 500 ------- 1 0.0 2.0 22 44
- 0.54 1 2 cbr 500 ------- 2 1.0 2.0 22 45
+ 0.54 0 2 cbr 500 ------- 1 0.0 2.0 44 88
+ 0.54 1 2 cbr 500 ------- 2 1.0 2.0 44 89
+ 0.55 0 2 cbr 500 ------- 1 0.0 2.0 45 90
+ 0.55 1 2 cbr 500 ------- 2 1.0 2.0 45 91
r 0.56 0 2 cbr 500 ------- 1 0.0 2.0 17 34
r 0.56 1 2 cbr 500 ------- 2 1.0 2.0 17 35
- 0.56 0 2 cbr 500 ------- 1 0.0 2.0 23 46
- 0.56 1 2 cbr 500 ------- 2 1.0 2.0 23 47
+ 0.56 0 2 cbr 500 ------- 1 0.0 2.0 46 92
+ 0.56 1 2 cbr 500 ------- 2 1.0 2.0 46 93
+ 0.57 0 2 cbr 500 ------- 1 0.0 2.0 47 94
+ 0.57 1 2 cbr 500 ------- 2 1.0 2.0 47 95
r 0.58 0 2 cbr 500 ------- 1 0.0 2.0 18 36
r 0.58 1 2 cbr 500 ------- 2 1.0 2.0 18 37
- 0.58 0 2 cbr 500 ------- 1 0.0 2.0 24 48
- 0.58 1 2 cbr 500 ------- 2 1.0 2.0 24 49
+ 0.58 0 2 cbr 500 ------- 1 0.0 2.0 48 96
+ 0.58 1 2 cbr 500 ------- 2 1.0 2.0 48 97
+ 0.59 0 2 cbr 500 ------- 1 0.0 2.0 49 98
+ 0.59 1 2 cbr 500 ------- 2 1.0 2.0 49 99
r 0.6 0 2 cbr 500 ------- 1 0.0 2.0 19 38
r 0.6 1 2 cbr 500 ------- 2 1.0 2.0 19 39
- 0.6 0 2 cbr 500 ------- 1 0.0 2.0 25 50
- 0.6 1 2 cbr 500 ------- 2 1.0 2.0 25 51
+ 0.6 0 2 cbr 500 ------- 1 0.0 2.0 50 100
+ 0.6 1 2 cbr 500 ------- 2 1.0 2.0 50 101
+ 0.61 0 2 cbr 500 ------- 1 0.0 2.0 51 102
+ 0.61 1 2 cbr 500 ------- 2 1.0 2.0 51 103
r 0.62 0 2 cbr 500 ------- 1 0.0 2.0 20 40
r 0.62 1 2 cbr 500 ------- 2 1.0 2.0 20 41
- 0.62 0 2 cbr 500 ------- 1 0.0 2.0 26 52
- 0.62 1 2 cbr 500 ------- 2 1.0 2.0 26 53
+ 0.62 0 2 cbr 500 ------- 1 0.0 2.0 52 104
+ 0.62 1 2 cbr 500 ------- 2 1.0 2.0 52 105
+ 0.63 0 2 cbr 500 ------- 1 0.0 2.0 53 106
+ 0.63 1 2 cbr 500 ------- 2 1.0 2.0 53 107
r 0.64 0 2 cbr 500 ------- 1 0.0 2.0 21 42
r 0.64 1 2 cbr 500 ------- 2 1.0 2.0 21 43
- 0.64 0 2 cbr 500 ------- 1 0.0 2.0 27 54
- 0.64 1 2 cbr 500 ------- 2 1.0 2.0 27 55
+ 0.64 0 2 cbr 500 ------- 1 0.0 2.0 54 108
+ 0.64 1 2 cbr 500 ------- 2 1.0 2.0 54 109
+ 0.65 0 2 cbr 500 ------- 1 0.0 2.0 55 110
+ 0.65 1 2 cbr 500 ------- 2 1.0 2.0 55 111
r 0.66 0 2 cbr 500 ------- 1 0.0 2.0 22 44
r 0.66 1 2 cbr 500 ------- 2 1.0 2.0 22 45
- 0.66 0 2 cbr 500 ------- 1 0.0 2.0 28 56
- 0.66 1 2 cbr 500 ------- 2 1.0 2.0 28 57
+ 0.66 0 2 cbr 500 ------- 1 0.0 2.0 56 112
+ 0.66 1 2 cbr 500 ------- 2 1.0 2.0 56 113
+ 0.67 0 2 cbr 500 ------- 1 0.0 2.0 57 114
+ 0.67 1 2 cbr 500 ------- 2 1.0 2.0 57 115
r 0.68 0 2 cbr 500 ------- 1 0.0 2.0 23 46
r 0.68 1 2 cbr 500 ------- 2 1.0 2.0 23 47
- 0.68 0 2 cbr 500 ------- 1 0.0 2.0 29 58
- 0.68 1 2 cbr 500 ------- 2 1.0 2.0 29 59
+ 0.68 0 2 cbr 500 ------- 1 0.0 2.0 58 116
+ 0.68 1 2 cbr 500 ------- 2 1.0 2.0 58 117
+ 0.69 0 2 cbr 500 ------- 1 0.0 2.0 59 118
+ 0.69 1 2 cbr 500 ------- 2 1.0 2.0 59 119
r 0.7 0 2 cbr 500 ------- 1 0.0 2.0 24 48
r 0.7 1 2 cbr 500 ------- 2 1.0 2.0 24 49
- 0.7 0 2 cbr 500 ------- 1 0.0 2.0 30 60
- 0.7 1 2 cbr 500 ------- 2 1.0 2.0 30 61
+ 0.7 0 2 cbr 500 ------- 1 0.0 2.0 60 120
+ 0.7 1 2 cbr 500 ------- 2 1.0 2.0 60 121
+ 0.71 0 2 cbr 500 ------- 1 0.0 2.0 61 122
+ 0.71 1 2 cbr 500 ------- 2 1.0 2.0 61 123
r 0.72 0 2 cbr 500 ------- 1 0.0 2.0 25 50
r 0.72 1 2 cbr 500 ------- 2 1.0 2.0 25 51
- 0.72 0 2 cbr 500 ------- 1 0.0 2.0 31 62
- 0.72 1 2 cbr 500 ------- 2 1.0 2.0 31 63
+ 0.72 0 2 cbr 500 ------- 1 0.0 2.0 62 124
+ 0.72 1 2 cbr 500 ------- 2 1.0 2.0 62 125
+ 0.73 0 2 cbr 500 ------- 1 0.0 2.0 63 126
+ 0.73 1 2 cbr 500 ------- 2 1.0 2.0 63 127
r 0.74 0 2 cbr 500 ------- 1 0.0 2.0 26 52
r 0.74 1 2 cbr 500 ------- 2 1.0 2.0 26 53
- 0.74 0 2 cbr 500 ------- 1 0.0 2.0 32 64
- 0.74 1 2 cbr 500 ------- 2 1.0 2.0 32 65
+ 0.74 0 2 cbr 500 ------- 1 0.0 2.0 64 128
+ 0.74 1 2 cbr 500 ------- 2 1.0 2.0 64 129
+ 0.75 0 2 cbr 500 ------- 1 0.0 2.0 65 130
+ 0.75 1 2 cbr 500 ------- 2 1.0 2.0 65 131
r 0.76 0 2 cbr 500 ------- 1 0.0 2.0 27 54
r 0.76 1 2 cbr 500 ------- 2 1.0 2.0 27 55
- 0.76 0 2 cbr 500 ------- 1 0.0 2.0 33 66
- 0.76 1 2 cbr 500 ------- 2 1.0 2.0 33 67
+ 0.76 0 2 cbr 500 ------- 1 0.0 2.0 66 132
+ 0.76 1 2 cbr 500 ------- 2 1.0 2.0 66 133
+ 0.77 0 2 cbr 500 ------- 1 0.0 2.0 67 134
+ 0.77 1 2 cbr 500 ------- 2 1.0 2.0 67 135
r 0.78 0 2 cbr 500 ------- 1 0.0 2.0 28 56
r 0.78 1 2 cbr 500 ------- 2 1.0 2.0 28 57
- 0.78 0 2 cbr 500 ------- 1 0.0 2.0 34 68
- 0.78 1 2 cbr 500 ------- 2 1.0 2.0 34 69
+ 0.78 0 2 cbr 500 ------- 1 0.0 2.0 68 136
+ 0.78 1 2 cbr 500 ------- 2 1.0 2.0 68 137
+ 0.79 0 2 cbr 500 ------- 1 0.0 2.0 69 138
+ 0.79 1 2 cbr 500 ------- 2 1.0 2.0 69 139
r 0.8 0 2 cbr 500 ------- 1 0.0 2.0 29 58
r 0.8 1 2 cbr 500 ------- 2 1.0 2.0 29 59
- 0.8 0 2 cbr 500 ------- 1 0.0 2.0 35 70
- 0.8 1 2 cbr 500 ------- 2 1.0 2.0 35 71
+ 0.8 0 2 cbr 500 ------- 1 0.0 2.0 70 140
+ 0.8 1 2 cbr 500 ------- 2 1.0 2.0 70 141
+ 0.81 0 2 cbr 500 ------- 1 0.0 2.0 71 142
+ 0.81 1 2 cbr 500 ------- 2 1.0 2.0 71 143
r 0.82 0 2 cbr 500 ------- 1 0.0 2.0 30 60
r 0.82 1 2 cbr 500 ------- 2 1.0 2.0 30 61
- 0.82 0 2 cbr 500 ------- 1 0.0 2.0 36 72
- 0.82 1 2 cbr 500 ------- 2 1.0 2.0 36 73
+ 0.82 0 2 cbr 500 ------- 1 0.0 2.0 72 144
+ 0.82 1 2 cbr 500 ------- 2 1.0 2.0 72 145
+ 0.83 0 2 cbr 500 ------- 1 0.0 2.0 73 146
+ 0.83 1 2 cbr 500 ------- 2 1.0 2.0 73 147
r 0.84 0 2 cbr 500 ------- 1 0.0 2.0 31 62
r 0.84 1 2 cbr 500 ------- 2 1.0 2.0 31 63
- 0.84 0 2 cbr 500 ------- 1 0.0 2.0 37 74
- 0.84 1 2 cbr 500 ------- 2 1.0 2.0 37 75
+ 0.84 0 2 cbr 500 ------- 1 0.0 2.0 74 148
+ 0.84 1 2 cbr 500 ------- 2 1.0 2.0 74 149
+ 0.85 0 2 cbr 500 ------- 1 0.0 2.0 75 150
+ 0.85 1 2 cbr 500 ------- 2 1.0 2.0 75 151
r 0.86 0 2 cbr 500 ------- 1 0.0 2.0 32 64
r 0.86 1 2 cbr 500 ------- 2 1.0 2.0 32 65
- 0.86 0 2 cbr 500 ------- 1 0.0 2.0 38 76
- 0.86 1 2 cbr 500 ------- 2 1.0 2.0 38 77
+ 0.86 0 2 cbr 500 ------- 1 0.0 2.0 76 152
+ 0.86 1 2 cbr 500 ------- 2 1.0 2.0 76 153
+ 0.87 0 2 cbr 500 ------- 1 0.0 2.0 77 154
+ 0.87 1 2 cbr 500 ------- 2 1.0 2.0 77 155
r 0.88 0 2 cbr 500 ------- 1 0.0 2.0 33 66
r 0.88 1 2 cbr 500 ------- 2 1.0 2.0 33 67
- 0.88 0 2 cbr 500 ------- 1 0.0 2.0 39 78
- 0.88 1 2 cbr 500 ------- 2 1.0 2.0 39 79
+ 0.88 0 2 cbr 500 ------- 1 0.0 2.0 78 156
+ 0.88 1 2 cbr 500 ------- 2 1.0 2.0 78 157
+ 0.89 0 2 cbr 500 ------- 1 0.0 2.0 79 158
+ 0.89 1 2 cbr 500 ------- 2 1.0 2.0 79 159
r 0.9 0 2 cbr 500 ------- 1 0.0 2.0 34 68
r 0.9 1 2 cbr 500 ------- 2 1.0 2.0 34 69
- 0.9 0 2 cbr 500 ------- 1 0.0 2.0 40 80
- 0.9 1 2 cbr 500 ------- 2 1.0 2.0 40 81
+ 0.9 0 2 cbr 500 ------- 1 0.0 2.0 80 160
+ 0.9 1 2 cbr 500 ------- 2 1.0 2.0 80 161
+ 0.91 0 2 cbr 500 ------- 1 0.0 2.0 81 162
+ 0.91 1 2 cbr 500 ------- 2 1.0 2.0 81 163
r 0.92 0 2 cbr 500 ------- 1 0.0 2.0 35 70
r 0.92 1 2 cbr 500 ------- 2 1.0 2.0 35 71
- 0.92 0 2 cbr 500 ------- 1 0.0 2.0 41 82
- 0.92 1 2 cbr 500 ------- 2 1.0 2.0 41 83
+ 0.92 0 2 cbr 500 ------- 1 0.0 2.0 82 164
+ 0.92 1 2 cbr 500 ------- 2 1.0 2.0 82 165
+ 0.93 0 2 cbr 500 ------- 1 0.0 2.0 83 166
+ 0.93 1 2 cbr 500 ------- 2 1.0 2.0 83 167
r 0.94 0 2 cbr 500 ------- 1 0.0 2.0 36 72
r 0.94 1 2 cbr 500 ------- 2 1.0 2.0 36 73
- 0.94 0 2 cbr 500 ------- 1 0.0 2.0 42 84
- 0.94 1 2 cbr 500 ------- 2 1.0 2.0 42 85
+ 0.94 0 2 cbr 500 ------- 1 0.0 2.0 84 168
+ 0.94 1 2 cbr 500 ------- 2 1.0 2.0 84 169
+ 0.95 0 2 cbr 500 ------- 1 0.0 2.0 85 170
+ 0.95 1 2 cbr 500 ------- 2 1.0 2.0 85 171
r 0.96 0 2 cbr 500 ------- 1 0.0 2.0 37 74
r 0.96 1 2 cbr 500 ------- 2 1.0 2.0 37 75
- 0.96 0 2 cbr 500 ------- 1 0.0 2.0 43 86
- 0.96 1 2 cbr 500 ------- 2 1.0 2.0 43 87
+ 0.96 0 2 cbr 500 ------- 1 0.0 2.0 86 172
+ 0.96 1 2 cbr 500 ------- 2 1.0 2.0 86 173
+ 0.97 0 2 cbr 500 ------- 1 0.0 2.0 87 174
+ 0.97 1 2 cbr 500 ------- 2 1.0 2.0 87 175
r 0.98 0 2 cbr 500 ------- 1 0.0 2.0 38 76
r 0.98 1 2 cbr 500 ------- 2 1.0 2.0 38 77
- 0.98 0 2 cbr 500 ------- 1 0.0 2.0 44 88
- 0.98 1 2 cbr 500 ------- 2 1.0 2.0 44 89
+ 0.98 0 2 cbr 500 ------- 1 0.0 2.0 88 176
+ 0.98 1 2 cbr 500 ------- 2 1.0 2.0 88 177
+ 0.99 0 2 cbr 500 ------- 1 0.0 2.0 89 178
+ 0.99 1 2 cbr 500 ------- 2 1.0 2.0 89 179
r 1 0 2 cbr 500 ------- 1 0.0 2.0 39 78
r 1 1 2 cbr 500 ------- 2 1.0 2.0 39 79
- 1 0 2 cbr 500 ------- 1 0.0 2.0 45 90
- 1 1 2 cbr 500 ------- 2 1.0 2.0 45 91
+ 1 0 2 cbr 500 ------- 1 0.0 2.0 90 180
+ 1 1 2 cbr 500 ------- 2 1.0 2.0 90 181
+ 1.01 0 2 cbr 500 ------- 1 0.0 2.0 91 182
+ 1.01 1 2 cbr 500 ------- 2 1.0 2.0 91 183
r 1.02 0 2 cbr 500 ------- 1 0.0 2.0 40 80
r 1.02 1 2 cbr 500 ------- 2 1.0 2.0 40 81
- 1.02 0 2 cbr 500 ------- 1 0.0 2.0 46 92
- 1.02 1 2 cbr 500 ------- 2 1.0 2.0 46 93
+ 1.02 0 2 cbr 500 ------- 1 0.0 2.0 92 184
+ 1.02 1 2 cbr 500 ------- 2 1.0 2.0 92 185
+ 1.03 0 2 cbr 500 ------- 1 0.0 2.0 93 186
+ 1.03 1 2 cbr 500 ------- 2 1.0 2.0 93 187
r 1.04 0 2 cbr 500 ------- 1 0.0 2.0 41 82
r 1.04 1 2 cbr 500 ------- 2 1.0 2.0 41 83
- 1.04 0 2 cbr 500 ------- 1 0.0 2.0 47 94
- 1.04 1 2 cbr 500 ------- 2 1.0 2.0 47 95
+ 1.04 0 2 cbr 500 ------- 1 0.0 2.0 94 188
+ 1.04 1 2 cbr 500 ------- 2 1.0 2.0 94 189
+ 1.05 0 2 cbr 500 ------- 1 0.0 2.0 95 190
+ 1.05 1 2 cbr 500 ------- 2 1.0 2.0 95 191
r 1.06 0 2 cbr 500 ------- 1 0.0 2.0 42 84
r 1.06 1 2 cbr 500 ------- 2 1.0 2.0 42 85
- 1.06 0 2 cbr 500 ------- 1 0.0 2.0 48 96
- 1.06 1 2 cbr 500 ------- 2 1.0 2.0 48 97
+ 1.06 0 2 cbr 500 ------- 1 0.0 2.0 96 192
+ 1.06 1 2 cbr 500 ------- 2 1.0 2.0 96 193
+ 1.07 0 2 cbr 500 ------- 1 0.0 2.0 97 194
+ 1.07 1 2 cbr 500 ------- 2 1.0 2.0 97 195
r 1.08 0 2 cbr 500 ------- 1 0.0 2.0 43 86
r 1.08 1 2 cbr 500 ------- 2 1.0 2.0 43 87
- 1.08 0 2 cbr 500 ------- 1 0.0 2.0 49 98
- 1.08 1 2 cbr 500 ------- 2 1.0 2.0 49 99
+ 1.08 0 2 cbr 500 ------- 1 0.0 2.0 98 196
+ 1.08 1 2 cbr 500 ------- 2 1.0 2.0 98 197
+ 1.09 0 2 cbr 500 ------- 1 0.0 2.0 99 198
d 1.09 0 2 cbr 500 ------- 1 0.0 2.0 99 198
+ 1.09 1 2 cbr 500 ------- 2 1.0 2.0 99 199
d 1.09 1 2 cbr 500 ------- 2 1.0 2.0 99 199
r 1.1 0 2 cbr 500 ------- 1 0.0 2.0 44 88
r 1.1 1 2 cbr 500 ------- 2 1.0 2.0 44 89
- 1.1 0 2 cbr 500 ------- 1 0.0 2.0 50 100
- 1.1 1 2 cbr 500 ------- 2 1.0 2.0 50 101
+ 1.1 0 2 cbr 500 ------- 1 0.0 2.0 100 200
+ 1.1 1 2 cbr 500 ------- 2 1.0 2.0 100 201
+ 1.11 0 2 cbr 500 ------- 1 0.0 2.0 101 202
d 1.11 0 2 cbr 500 ------- 1 0.0 2.0 101 202
+ 1.11 1 2 cbr 500 ------- 2 1.0 2.0 101 203
d 1.11 1 2 cbr 500 ------- 2 1.0 2.0 101 203
r 1.12 0 2 cbr 500 ------- 1 0.0 2.0 45 90
r 1.12 1 2 cbr 500 ------- 2 1.0 2.0 45 91
- 1.12 0 2 cbr 500 ------- 1 0.0 2.0 51 102
- 1.12 1 2 cbr 500 ------- 2 1.0 2.0 51 103
+ 1.12 0 2 cbr 500 ------- 1 0.0 2.0 102 204
+ 1.12 1 2 cbr 500 ------- 2 1.0 2.0 102 205
+ 1.13 0 2 cbr 500 ------- 1 0.0 2.0 103 206
d 1.13 0 2 cbr 500 ------- 1 0.0 2.0 103 206
+ 1.13 1 2 cbr 500 ------- 2 1.0 2.0 103 207
d 1.13 1 2 cbr 500 ------- 2 1.0 2.0 103 207
r 1.14 0 2 cbr 500 ------- 1 0.0 2.0 46 92
r 1.14 1 2 cbr 500 ------- 2 1.0 2.0 46 93
- 1.14 0 2 cbr 500 ------- 1 0.0 2.0 52 104
- 1.14 1 2 cbr 500 ------- 2 1.0 2.0 52 105
+ 1.14 0 2 cbr 500 ------- 1 0.0 2.0 104 208
+ 1.14 1 2 cbr 500 ------- 2 1.0 2.0 104 209
+ 1.15 0 2 cbr 500 ------- 1 0.0 2.0 105 210
d 1.15 0 2 cbr 500 ------- 1 0.0 2.0 105 210
+ 1.15 1 2 cbr 500 ------- 2 1.0 2.0 105 211
d 1.15 1 2 cbr 500 ------- 2 1.0 2.0 105 211
r 1.16 0 2 cbr 500 ------- 1 0.0 2.0 47 94
r 1.16 1 2 cbr 500 ------- 2 1.0 2.0 47 95
- 1.16 0 2 cbr 500 ------- 1 0.0 2.0 53 106
- 1.16 1 2 cbr 500 ------- 2 1.0 2.0 53 107
+ 1.16 0 2 cbr 500 ------- 1 0.0 2.0 106 212
+ 1.16 1 2 cbr 500 ------- 2 1.0 2.0 106 213
+ 1.17 0 2 cbr 500 ------- 1 0.0 2.0 107 214
d 1.17 0 2 cbr 500 ------- 1 0.0 2.0 107 214
+ 1.17 1 2 cbr 500 ------- 2 1.0 2.0 107 215
d 1.17 1 2 cbr 500 ------- 2 1.0 2.0 107 215
r 1.18 0 2 cbr 500 ------- 1 0.0 2.0 48 96
r 1.18 1 2 cbr 500 ------- 2 1.0 2.0 48 97
- 1.18 0 2 cbr 500 ------- 1 0.0 2.0 54 108
- 1.18 1 2 cbr 500 ------- 2 1.0 2.0 54 109
+ 1.18 0 2 cbr 500 ------- 1 0.0 2.0 108 216
+ 1.18 1 2 cbr 500 ------- 2 1.0 2.0 108 217
+ 1.19 0 2 cbr 500 ------- 1 0.0 2.0 109 218
d 1.19 0 2 cbr 500 ------- 1 0.0 2.0 109 218
+ 1.19 1 2 cbr 500 ------- 2 1.0 2.0 109 219
d 1.19 1 2 cbr 500 ------- 2 1.0 2.0 109 219
r 1.2 0 2 cbr 500 ------- 1 0.0 2.0 49 98
r 1.2 1 2 cbr 500 ------- 2 1.0 2.0 49 99
- 1.2 0 2 cbr 500 ------- 1 0.0 2.0 55 110
- 1.2 1 2 cbr 500 ------- 2 1.0 2.0 55 111
+ 1.2 0 2 cbr 500 ------- 1 0.0 2.0 110 220
+ 1.2 1 2 cbr 500 ------- 2 1.0 2.0 110 221
+ 1.21 0 2 cbr 500 ------- 1 0.0 2.0 111 222
d 1.21 0 2 cbr 500 ------- 1 0.0 2.0 111 222
+ 1.21 1 2 cbr 500 ------- 2 1.0 2.0 111 223
d 1.21 1 2 cbr 500 ------- 2 1.0 2.0 111 223
r 1.22 0 2 cbr 500 ------- 1 0.0 2.0 50 100
r 1.22 1 2 cbr 500 ------- 2 1.0 2.0 50 101
- 1.22 0 2 cbr 500 ------- 1 0.0 2.0 56 112
- 1.22 1 2 cbr 500 ------- 2 1.0 2.0 56 113
+ 1.22 0 2 cbr 500 ------- 1 0.0 2.0 112 224
+ 1.22 1 2 cbr 500 ------- 2 1.0 2.0 112 225
+ 1.23 0 2 cbr 500 ------- 1 0.0 2.0 113 226
d 1.23 0 2 cbr 500 ------- 1 0.0 2.0 113 226
+ 1.23 1 2 cbr 500 ------- 2 1.0 2.0 113 227
d 1.23 1 2 cbr 500 ------- 2 1.0 2.0 113 227
r 1.24 0 2 cbr 500 ------- 1 0.0 2.0 51 102
r 1.24 1 2 cbr 500 ------- 2 1.0 2.0 51 103
- 1.24 0 2 cbr 500 ------- 1 0.0 2.0 57 114
- 1.24 1 2 cbr 500 ------- 2 1.0 2.0 57 115
+ 1.24 0 2 cbr 500 ------- 1 0.0 2.0 114 228
+ 1.24 1 2 cbr 500 ------- 2 1.0 2.0 114 229
+ 1.25 0 2 cbr 500 ------- 1 0.0 2.0 115 230
d 1.25 0 2 cbr 500 ------- 1 0.0 2.0 115 230
+ 1.25 1 2 cbr 500 ------- 2 1.0 2.0 115 231
d 1.25 1 2 cbr 500 ------- 2 1.0 2.0 115 231
r 1.26 0 2 cbr 500 ------- 1 0.0 2.0 52 104
r 1.26 1 2 cbr 500 ------- 2 1.0 2.0 52 105
- 1.26 0 2 cbr 500 ------- 1 0.0 2.0 58 116
- 1.26 1 2 cbr 500 ------- 2 1.0 2.0 58 117
+ 1.26 0 2 cbr 500 ------- 1 0.0 2.0 116 232
+ 1.26 1 2 cbr 500 ------- 2 1.0 2.0 116 233
+ 1.27 0 2 cbr 500 ------- 1 0.0 2.0 117 234
d 1.27 0 2 cbr 500 ------- 1 0.0 2.0 117 234
+ 1.27 1 2 cbr 500 ------- 2 1.0 2.0 117 235
d 1.27 1 2 cbr 500 ------- 2 1.0 2.0 117 235
r 1.28 0 2 cbr 500 ------- 1 0.0 2.0 53 106
r 1.28 1 2 cbr 500 ------- 2 1.0 2.0 53 107
- 1.28 0 2 cbr 500 ------- 1 0.0 2.0 59 118
- 1.28 1 2 cbr 500 ------- 2 1.0 2.0 59 119
+ 1.28 0 2 cbr 500 ------- 1 0.0 2.0 118 236
+ 1.28 1 2 cbr 500 ------- 2 1.0 2.0 118 237
+ 1.29 0 2 cbr 500 ------- 1 0.0 2.0 119 238
d 1.29 0 2 cbr 500 ------- 1 0.0 2.0 119 238
+ 1.29 1 2 cbr 500 ------- 2 1.0 2.0 119 239
d 1.29 1 2 cbr 500 ------- 2 1.0 2.0 119 239
r 1.3 0 2 cbr 500 ------- 1 0.0 2.0 54 108
r 1.3 1 2 cbr 500 ------- 2 1.0 2.0 54 109
- 1.3 0 2 cbr 500 ------- 1 0.0 2.0 60 120
- 1.3 1 2 cbr 500 ------- 2 1.0 2.0 60 121
+ 1.3 0 2 cbr 500 ------- 1 0.0 2.0 120 240
+ 1.3 1 2 cbr 500 ------- 2 1.0 2.0 120 241
+ 1.31 0 2 cbr 500 ------- 1 0.0 2.0 121 242
d 1.31 0 2 cbr 500 ------- 1 0.0 2.0 121 242
+ 1.31 1 2 cbr 500 ------- 2 1.0 2.0 121 243
d 1.31 1 2 cbr 500 ------- 2 1.0 2.0 121 243
r 1.32 0 2 cbr 500 ------- 1 0.0 2.0 55 110
r 1.32 1 2 cbr 500 ------- 2 1.0 2.0 55 111
- 1.32 0 2 cbr 500 ------- 1 0.0 2.0 61 122
- 1.32 1 2 cbr 500 ------- 2 1.0 2.0 61 123
+ 1.32 0 2 cbr 500 ------- 1 0.0 2.0 122 244
+ 1.32 1 2 cbr 500 ------- 2 1.0 2.0 122 245
+ 1.33 0 2 cbr 500 ------- 1 0.0 2.0 123 246
d 1.33 0 2 cbr 500 ------- 1 0.0 2.0 123 246
+ 1.33 1 2 cbr 500 ------- 2 1.0 2.0 123 247
d 1.33 1 2 cbr 500 ------- 2 1.0 2.0 123 247
r 1.34 0 2 cbr 500 ------- 1 0.0 2.0 56 112
r 1.34 1 2 cbr 500 ------- 2 1.0 2.0 56 113
- 1.34 0 2 cbr 500 ------- 1 0.0 2.0 62 124
- 1.34 1 2 cbr 500 ------- 2 1.0 2.0 62 125
+ 1.34 0 2 cbr 500 ------- 1 0.0 2.0 124 248
+ 1.34 1 2 cbr 500 ------- 2 1.0 2.0 124 249
+ 1.35 0 2 cbr 500 ------- 1 0.0 2.0 125 250
d 1.35 0 2 cbr 500 ------- 1 0.0 2.0 125 250
+ 1.35 1 2 cbr 500 ------- 2 1.0 2.0 125 251
d 1.35 1 2 cbr 500 ------- 2 1.0 2.0 125 251
r 1.36 0 2 cbr 500 ------- 1 0.0 2.0 57 114
r 1.36 1 2 cbr 500 ------- 2 1.0 2.0 57 115
- 1.36 0 2 cbr 500 ------- 1 0.0 2.0 63 126
- 1.36 1 2 cbr 500 ------- 2 1.0 2.0 63 127
+ 1.36 0 2 cbr 500 ------- 1 0.0 2.0 126 252
+ 1.36 1 2 cbr 500 ------- 2 1.0 2.0 126 253
+ 1.37 0 2 cbr 500 ------- 1 0.0 2.0 127 254
d 1.37 0 2 cbr 500 ------- 1 0.0 2.0 127 254
+ 1.37 1 2 cbr 500 ------- 2 1.0 2.0 127 255
d 1.37 1 2 cbr 500 ------- 2 1.0 2.0 127 255
r 1.38 0 2 cbr 500 ------- 1 0.0 2.0 58 116
r 1.38 1 2 cbr 500 ------- 2 1.0 2.0 58 117
- 1.38 0 2 cbr 500 ------- 1 0.0 2.0 64 128
- 1.38 1 2 cbr 500 ------- 2 1.0 2.0 64 129
+ 1.38 0 2 cbr 500 ------- 1 0.0 2.0 128 256
+ 1.38 1 2 cbr 500 ------- 2 1.0 2.0 128 257
+ 1.39 0 2 cbr 500 ------- 1 0.0 2.0 129 258
d 1.39 0 2 cbr 500 ------- 1 0.0 2.0 129 258
+ 1.39 1 2 cbr 500 ------- 2 1.0 2.0 129 259
d 1.39 1 2 cbr 500 ------- 2 1.0 2.0 129 259
r 1.4 0 2 cbr 500 ------- 1 0.0 2.0 59 118
r 1.4 1 2 cbr 500 ------- 2 1.0 2.0 59 119
- 1.4 0 2 cbr 500 ------- 1 0.0 2.0 65 130
- 1.4 1 2 cbr 500 ------- 2 1.0 2.0 65 131
+ 1.4 0 2 cbr 500 ------- 1 0.0 2.0 130 260
+ 1.4 1 2 cbr 500 ------- 2 1.0 2.0 130 261
+ 1.41 0 2 cbr 500 ------- 1 0.0 2.0 131 262
d 1.41 0 2 cbr 500 ------- 1 0.0 2.0 131 262
+ 1.41 1 2 cbr 500 ------- 2 1.0 2.0 131 263
d 1.41 1 2 cbr 500 ------- 2 1.0 2.0 131 263
r 1.42 0 2 cbr 500 ------- 1 0.0 2.0 60 120
r 1.42 1 2 cbr 500 ------- 2 1.0 2.0 60 121
- 1.42 0 2 cbr 500 ------- 1 0.0 2.0 66 132
- 1.42 1 2 cbr 500 ------- 2 1.0 2.0 66 133
+ 1.42 0 2 cbr 500 ------- 1 0.0 2.0 132 264
+ 1.42 1 2 cbr 500 ------- 2 1.0 2.0 132 265
+ 1.43 0 2 cbr 500 ------- 1 0.0 2.0 133 266
d 1.43 0 2 cbr 500 ------- 1 0.0 2.0 133 266
+ 1.43 1 2 cbr 500 ------- 2 1.0 2.0 133 267
d 1.43 1 2 cbr 500 ------- 2 1.0 2.0 133 267
r 1.44 0 2 cbr 500 ------- 1 0.0 2.0 61 122
r 1.44 1 2 cbr 500 ------- 2 1.0 2.0 61 123
- 1.44 0 2 cbr 500 ------- 1 0.0 2.0 67 134
- 1.44 1 2 cbr 500 ------- 2 1.0 2.0 67 135
+ 1.44 0 2 cbr 500 ------- 1 0.0 2.0 134 268
+ 1.44 1 2 cbr 500 ------- 2 1.0 2.0 134 269
+ 1.45 0 2 cbr 500 ------- 1 0.0 2.0 135 270
d 1.45 0 2 cbr 500 ------- 1 0.0 2.0 135 270
+ 1.45 1 2 cbr 500 ------- 2 1.0 2.0 135 271
d 1.45 1 2 cbr 500 ------- 2 1.0 2.0 135 271
r 1.46 0 2 cbr 500 ------- 1 0.0 2.0 62 124
r 1.46 1 2 cbr 500 ------- 2 1.0 2.0 62 125
- 1.46 0 2 cbr 500 ------- 1 0.0 2.0 68 136
- 1.46 1 2 cbr 500 ------- 2 1.0 2.0 68 137
+ 1.46 0 2 cbr 500 ------- 1 0.0 2.0 136 272
+ 1.46 1 2 cbr 500 ------- 2 1.0 2.0 136 273
+ 1.47 0 2 cbr 500 ------- 1 0.0 2.0 137 274
d 1.47 0 2 cbr 500 ------- 1 0.0 2.0 137 274
+ 1.47 1 2 cbr 500 ------- 2 1.0 2.0 137 275
d 1.47 1 2 cbr 500 ------- 2 1.0 2.0 137 275
r 1.48 0 2 cbr 500 ------- 1 0.0 2.0 63 126
r 1.48 1 2 cbr 500 ------- 2 1.0 2.0 63 127
- 1.48 0 2 cbr 500 ------- 1 0.0 2.0 69 138
- 1.48 1 2 cbr 500 ------- 2 1.0 2.0 69 139
+ 1.48 0 2 cbr 500 ------- 1 0.0 2.0 138 276
+ 1.48 1 2 cbr 500 ------- 2 1.0 2.0 138 277
+ 1.49 0 2 cbr 500 ------- 1 0.0 2.0 139 278
d 1.49 0 2 cbr 500 ------- 1 0.0 2.0 139 278
+ 1.49 1 2 cbr 500 ------- 2 1.0 2.0 139 279
d 1.49 1 2 cbr 500 ------- 2 1.0 2.0 139 279
r 1.5 0 2 cbr 500 ------- 1 0.0 2.0 64 128
r 1.5 1 2 cbr 500 ------- 2 1.0 2.0 64 129
- 1.5 0 2 cbr 500 ------- 1 0.0 2.0 70 140
- 1.5 1 2 cbr 500 ------- 2 1.0 2.0 70 141
+ 1.5 0 2 cbr 500 ------- 1 0.0 2.0 140 280
+ 1.5 1 2 cbr 500 ------- 2 1.0 2.0 140 281
+ 1.51 0 2 cbr 500 ------- 1 0.0 2.0 141 282
d 1.51 0 2 cbr 500 ------- 1 0.0 2.0 141 282
+ 1.51 1 2 cbr 500 ------- 2 1.0 2.0 141 283
d 1.51 1 2 cbr 500 ------- 2 1.0 2.0 141 283
r 1.52 0 2 cbr 500 ------- 1 0.0 2.0 65 130
r 1.52 1 2 cbr 500 ------- 2 1.0 2.0 65 131
- 1.52 0 2 cbr 500 ------- 1 0.0 2.0 71 142
- 1.52 1 2 cbr 500 ------- 2 1.0 2.0 71 143
+ 1.52 0 2 cbr 500 ------- 1 0.0 2.0 142 284
+ 1.52 1 2 cbr 500 ------- 2 1.0 2.0 142 285
+ 1.53 0 2 cbr 500 ------- 1 0.0 2.0 143 286
d 1.53 0 2 cbr 500 ------- 1 0.0 2.0 143 286
+ 1.53 1 2 cbr 500 ------- 2 1.0 2.0 143 287
d 1.53 1 2 cbr 500 ------- 2 1.0 2.0 143 287
r 1.54 0 2 cbr 500 ------- 1 0.0 2.0 66 132
r 1.54 1 2 cbr 500 ------- 2 1.0 2.0 66 133
- 1.54 0 2 cbr 500 ------- 1 0.0 2.0 72 144
- 1.54 1 2 cbr 500 ------- 2 1.0 2.0 72 145
+ 1.54 0 2 cbr 500 ------- 1 0.0 2.0 144 288
+ 1.54 1 2 cbr 500 ------- 2 1.0 2.0 144 289
+ 1.55 0 2 cbr 500 ------- 1 0.0 2.0 145 290
d 1.55 0 2 cbr 500 ------- 1 0.0 2.0 145 290
+ 1.55 1 2 cbr 500 ------- 2 1.0 2.0 145 291
d 1.55 1 2 cbr 500 ------- 2 1.0 2.0 145 291
r 1.56 0 2 cbr 500 ------- 1 0.0 2.0 67 134
r 1.56 1 2 cbr 500 ------- 2 1.0 2.0 67 135
- 1.56 0 2 cbr 500 ------- 1 0.0 2.0 73 146
- 1.56 1 2 cbr 500 ------- 2 1.0 2.0 73 147
+ 1.56 0 2 cbr 500 ------- 1 0.0 2.0 146 292
+ 1.56 1 2 cbr 500 ------- 2 1.0 2.0 146 293
+ 1.57 0 2 cbr 500 ------- 1 0.0 2.0 147 294
d 1.57 0 2 cbr 500 ------- 1 0.0 2.0 147 294
+ 1.57 1 2 cbr 500 ------- 2 1.0 2.0 147 295
d 1.57 1 2 cbr 500 ------- 2 1.0 2.0 147 295
r 1.58 0 2 cbr 500 ------- 1 0.0 2.0 68 136
r 1.58 1 2 cbr 500 ------- 2 1.0 2.0 68 137
- 1.58 0 2 cbr 500 ------- 1 0.0 2.0 74 148
- 1.58 1 2 cbr 500 ------- 2 1.0 2.0 74 149
+ 1.58 0 2 cbr 500 ------- 1 0.0 2.0 148 296
+ 1.58 1 2 cbr 500 ------- 2 1.0 2.0 148 297
+ 1.59 0 2 cbr 500 ------- 1 0.0 2.0 149 298
d 1.59 0 2 cbr 500 ------- 1 0.0 2.0 149 298
+ 1.59 1 2 cbr 500 ------- 2 1.0 2.0 149 299
d 1.59 1 2 cbr 500 ------- 2 1.0 2.0 149 299
r 1.6 0 2 cbr 500 ------- 1 0.0 2.0 69 138
r 1.6 1 2 cbr 500 ------- 2 1.0 2.0 69 139
- 1.6 0 2 cbr 500 ------- 1 0.0 2.0 75 150
- 1.6 1 2 cbr 500 ------- 2 1.0 2.0 75 151
+ 1.6 0 2 cbr 500 ------- 1 0.0 2.0 150 300
+ 1.6 1 2 cbr 500 ------- 2 1.0 2.0 150 301
+ 1.61 0 2 cbr 500 ------- 1 0.0 2.0 151 302
d 1.61 0 2 cbr 500 ------- 1 0.0 2.0 151 302
+ 1.61 1 2 cbr 500 ------- 2 1.0 2.0 151 303
d 1.61 1 2 cbr 500 ------- 2 1.0 2.0 151 303
r 1.62 0 2 cbr 500 ------- 1 0.0 2.0 70 140
r 1.62 1 2 cbr 500 ------- 2 1.0 2.0 70 141
- 1.62 0 2 cbr 500 ------- 1 0.0 2.0 76 152
- 1.62 1 2 cbr 500 ------- 2 1.0 2.0 76 153
+ 1.62 0 2 cbr 500 ------- 1 0.0 2.0 152 304
+ 1.62 1 2 cbr 500 ------- 2 1.0 2.0 152 305
+ 1.63 0 2 cbr 500 ------- 1 0.0 2.0 153 306
d 1.63 0 2 cbr 500 ------- 1 0.0 2.0 153 306
+ 1.63 1 2 cbr 500 ------- 2 1.0 2.0 153 307
d 1.63 1 2 cbr 500 ------- 2 1.0 2.0 153 307
r 1.64 0 2 cbr 500 ------- 1 0.0 2.0 71 142
r 1.64 1 2 cbr 500 ------- 2 1.0 2.0 71 143
- 1.64 0 2 cbr 500 ------- 1 0.0 2.0 77 154
- 1.64 1 2 cbr 500 ------- 2 1.0 2.0 77 155
+ 1.64 0 2 cbr 500 ------- 1 0.0 2.0 154 308
+ 1.64 1 2 cbr 500 ------- 2 1.0 2.0 154 309
+ 1.65 0 2 cbr 500 ------- 1 0.0 2.0 155 310
d 1.65 0 2 cbr 500 ------- 1 0.0 2.0 155 310
+ 1.65 1 2 cbr 500 ------- 2 1.0 2.0 155 311
d 1.65 1 2 cbr 500 ------- 2 1.0 2.0 155 311
r 1.66 0 2 cbr 500 ------- 1 0.0 2.0 72 144
r 1.66 1 2 cbr 500 ------- 2 1.0 2.0 72 145
- 1.66 0 2 cbr 500 ------- 1 0.0 2.0 78 156
- 1.66 1 2 cbr 500 ------- 2 1.0 2.0 78 157
+ 1.66 0 2 cbr 500 ------- 1 0.0 2.0 156 312
+ 1.66 1 2 cbr 500 ------- 2 1.0 2.0 156 313
+ 1.67 0 2 cbr 500 ------- 1 0.0 2.0 157 314
d 1.67 0 2 cbr 500 ------- 1 0.0 2.0 157 314
+ 1.67 1 2 cbr 500 ------- 2 1.0 2.0 157 315
d 1.67 1 2 cbr 500 ------- 2 1.0 2.0 157 315
r 1.68 0 2 cbr 500 ------- 1 0.0 2.0 73 146
r 1.68 1 2 cbr 500 ------- 2 1.0 2.0 73 147
- 1.68 0 2 cbr 500 ------- 1 0.0 2.0 79 158
- 1.68 1 2 cbr 500 ------- 2 1.0 2.0 79 159
+ 1.68 0 2 cbr 500 ------- 1 0.0 2.0 158 316
+ 1.68 1 2 cbr 500 ------- 2 1.0 2.0 158 317
+ 1.69 0 2 cbr 500 ------- 1 0.0 2.0 159 318
d 1.69 0 2 cbr 500 ------- 1 0.0 2.0 159 318