h 0.1 1 6 cbr 200 ------- 1 1.0 5.0 0 0
+ 0.11 1 6 cbr 200 ------- 1 1.0 5.0 0 0
- 0.11 1 6 cbr 200 ------- 1 1.0 5.0 0 0
h 0.11 1 6 cbr 200 ------- 1 1.0 5.0 1 1
+ 0.12 1 6 cbr 200 ------- 1 1.0 5.0 1 1
- 0.12 1 6 cbr 200 ------- 1 1.0 5.0 1 1
h 0.12 1 6 cbr 200 ------- 1 1.0 5.0 2 2
r 0.120021 6 2 cbr 200 ------- 1 1.0 5.0 0 0
d 0.120021 2 4 cbr 200 ------- 1 1.0 5.0 0 0
+ 0.13 1 6 cbr 200 ------- 1 1.0 5.0 2 2
- 0.13 1 6 cbr 200 ------- 1 1.0 5.0 2 2
h 0.13 1 6 cbr 200 ------- 1 1.0 5.0 3 3
r 0.130021 6 2 cbr 200 ------- 1 1.0 5.0 1 1
+ 0.130021 2 4 cbr 200 ------- 1 1.0 5.0 1 1
- 0.130021 2 4 cbr 200 ------- 1 1.0 5.0 1 1
+ 0.14 1 6 cbr 200 ------- 1 1.0 5.0 3 3
- 0.14 1 6 cbr 200 ------- 1 1.0 5.0 3 3
h 0.14 1 6 cbr 200 ------- 1 1.0 5.0 4 4
r 0.140021 6 2 cbr 200 ------- 1 1.0 5.0 2 2
d 0.140021 2 4 cbr 200 ------- 1 1.0 5.0 2 2
r 0.140037 2 4 cbr 200 ------- 1 1.0 5.0 1 1
h 0.140037 4 7 cbr 200 ------- 1 1.0 5.0 1 1
+ 0.15 1 6 cbr 200 ------- 1 1.0 5.0 4 4
- 0.15 1 6 cbr 200 ------- 1 1.0 5.0 4 4
h 0.15 1 6 cbr 200 ------- 1 1.0 5.0 5 5
r 0.150021 6 2 cbr 200 ------- 1 1.0 5.0 3 3
d 0.150021 2 4 cbr 200 ------- 1 1.0 5.0 3 3
+ 0.150037 4 7 cbr 200 ------- 1 1.0 5.0 1 1
- 0.150037 4 7 cbr 200 ------- 1 1.0 5.0 1 1
+ 0.16 1 6 cbr 200 ------- 1 1.0 5.0 5 5
- 0.16 1 6 cbr 200 ------- 1 1.0 5.0 5 5
h 0.16 1 6 cbr 200 ------- 1 1.0 5.0 6 6
r 0.160021 6 2 cbr 200 ------- 1 1.0 5.0 4 4
+ 0.160021 2 4 cbr 200 ------- 1 1.0 5.0 4 4
- 0.160021 2 4 cbr 200 ------- 1 1.0 5.0 4 4
r 0.160058 7 5 cbr 200 ------- 1 1.0 5.0 1 1
+ 0.17 1 6 cbr 200 ------- 1 1.0 5.0 6 6
- 0.17 1 6 cbr 200 ------- 1 1.0 5.0 6 6
h 0.17 1 6 cbr 200 ------- 1 1.0 5.0 7 7
r 0.170021 6 2 cbr 200 ------- 1 1.0 5.0 5 5
+ 0.170021 2 4 cbr 200 ------- 1 1.0 5.0 5 5
- 0.170021 2 4 cbr 200 ------- 1 1.0 5.0 5 5
r 0.170037 2 4 cbr 200 ------- 1 1.0 5.0 4 4
h 0.170037 4 7 cbr 200 ------- 1 1.0 5.0 4 4
+ 0.18 1 6 cbr 200 ------- 1 1.0 5.0 7 7
- 0.18 1 6 cbr 200 ------- 1 1.0 5.0 7 7
h 0.18 1 6 cbr 200 ------- 1 1.0 5.0 8 8
r 0.180021 6 2 cbr 200 ------- 1 1.0 5.0 6 6
+ 0.180021 2 4 cbr 200 ------- 1 1.0 5.0 6 6
- 0.180021 2 4 cbr 200 ------- 1 1.0 5.0 6 6
r 0.180037 2 4 cbr 200 ------- 1 1.0 5.0 5 5
h 0.180037 4 7 cbr 200 ------- 1 1.0 5.0 5 5
+ 0.180037 4 7 cbr 200 ------- 1 1.0 5.0 4 4
- 0.180037 4 7 cbr 200 ------- 1 1.0 5.0 4 4
+ 0.19 1 6 cbr 200 ------- 1 1.0 5.0 8 8
- 0.19 1 6 cbr 200 ------- 1 1.0 5.0 8 8
h 0.19 1 6 cbr 200 ------- 1 1.0 5.0 9 9
r 0.190021 6 2 cbr 200 ------- 1 1.0 5.0 7 7
+ 0.190021 2 4 cbr 200 ------- 1 1.0 5.0 7 7
- 0.190021 2 4 cbr 200 ------- 1 1.0 5.0 7 7
r 0.190037 2 4 cbr 200 ------- 1 1.0 5.0 6 6
h 0.190037 4 7 cbr 200 ------- 1 1.0 5.0 6 6
+ 0.190037 4 7 cbr 200 ------- 1 1.0 5.0 5 5
- 0.190037 4 7 cbr 200 ------- 1 1.0 5.0 5 5
r 0.190058 7 5 cbr 200 ------- 1 1.0 5.0 4 4
+ 0.2 1 6 cbr 200 ------- 1 1.0 5.0 9 9
- 0.2 1 6 cbr 200 ------- 1 1.0 5.0 9 9
h 0.2 1 6 cbr 200 ------- 1 1.0 5.0 10 10
r 0.200021 6 2 cbr 200 ------- 1 1.0 5.0 8 8
+ 0.200021 2 4 cbr 200 ------- 1 1.0 5.0 8 8
- 0.200021 2 4 cbr 200 ------- 1 1.0 5.0 8 8
r 0.200037 2 4 cbr 200 ------- 1 1.0 5.0 7 7
h 0.200037 4 7 cbr 200 ------- 1 1.0 5.0 7 7
+ 0.200037 4 7 cbr 200 ------- 1 1.0 5.0 6 6
- 0.200037 4 7 cbr 200 ------- 1 1.0 5.0 6 6
r 0.200058 7 5 cbr 200 ------- 1 1.0 5.0 5 5
+ 0.21 1 6 cbr 200 ------- 1 1.0 5.0 10 10
- 0.21 1 6 cbr 200 ------- 1 1.0 5.0 10 10
h 0.21 1 6 cbr 200 ------- 1 1.0 5.0 11 11
r 0.210021 6 2 cbr 200 ------- 1 1.0 5.0 9 9
+ 0.210021 2 4 cbr 200 ------- 1 1.0 5.0 9 9
- 0.210021 2 4 cbr 200 ------- 1 1.0 5.0 9 9
r 0.210037 2 4 cbr 200 ------- 1 1.0 5.0 8 8
h 0.210037 4 7 cbr 200 ------- 1 1.0 5.0 8 8
+ 0.210037 4 7 cbr 200 ------- 1 1.0 5.0 7 7
- 0.210037 4 7 cbr 200 ------- 1 1.0 5.0 7 7
r 0.210058 7 5 cbr 200 ------- 1 1.0 5.0 6 6
+ 0.22 1 6 cbr 200 ------- 1 1.0 5.0 11 11
- 0.22 1 6 cbr 200 ------- 1 1.0 5.0 11 11
h 0.22 1 6 cbr 200 ------- 1 1.0 5.0 12 12
r 0.220021 6 2 cbr 200 ------- 1 1.0 5.0 10 10
+ 0.220021 2 4 cbr 200 ------- 1 1.0 5.0 10 10
- 0.220021 2 4 cbr 200 ------- 1 1.0 5.0 10 10
r 0.220037 2 4 cbr 200 ------- 1 1.0 5.0 9 9
h 0.220037 4 7 cbr 200 ------- 1 1.0 5.0 9 9
+ 0.220037 4 7 cbr 200 ------- 1 1.0 5.0 8 8
- 0.220037 4 7 cbr 200 ------- 1 1.0 5.0 8 8
r 0.220058 7 5 cbr 200 ------- 1 1.0 5.0 7 7
+ 0.23 1 6 cbr 200 ------- 1 1.0 5.0 12 12
- 0.23 1 6 cbr 200 ------- 1 1.0 5.0 12 12
h 0.23 1 6 cbr 200 ------- 1 1.0 5.0 13 13
r 0.230021 6 2 cbr 200 ------- 1 1.0 5.0 11 11
+ 0.230021 2 4 cbr 200 ------- 1 1.0 5.0 11 11
- 0.230021 2 4 cbr 200 ------- 1 1.0 5.0 11 11
r 0.230037 2 4 cbr 200 ------- 1 1.0 5.0 10 10
h 0.230037 4 7 cbr 200 ------- 1 1.0 5.0 10 10
+ 0.230037 4 7 cbr 200 ------- 1 1.0 5.0 9 9
- 0.230037 4 7 cbr 200 ------- 1 1.0 5.0 9 9
r 0.230058 7 5 cbr 200 ------- 1 1.0 5.0 8 8
+ 0.24 1 6 cbr 200 ------- 1 1.0 5.0 13 13
- 0.24 1 6 cbr 200 ------- 1 1.0 5.0 13 13
h 0.24 1 6 cbr 200 ------- 1 1.0 5.0 14 14
r 0.240021 6 2 cbr 200 ------- 1 1.0 5.0 12 12
+ 0.240021 2 4 cbr 200 ------- 1 1.0 5.0 12 12
- 0.240021 2 4 cbr 200 ------- 1 1.0 5.0 12 12
r 0.240037 2 4 cbr 200 ------- 1 1.0 5.0 11 11
h 0.240037 4 7 cbr 200 ------- 1 1.0 5.0 11 11
+ 0.240037 4 7 cbr 200 ------- 1 1.0 5.0 10 10
- 0.240037 4 7 cbr 200 ------- 1 1.0 5.0 10 10
r 0.240058 7 5 cbr 200 ------- 1 1.0 5.0 9 9
+ 0.25 1 6 cbr 200 ------- 1 1.0 5.0 14 14
- 0.25 1 6 cbr 200 ------- 1 1.0 5.0 14 14
h 0.25 1 6 cbr 200 ------- 1 1.0 5.0 15 15
r 0.250021 6 2 cbr 200 ------- 1 1.0 5.0 13 13
d 0.250021 2 4 cbr 200 ------- 1 1.0 5.0 13 13
r 0.250037 2 4 cbr 200 ------- 1 1.0 5.0 12 12
h 0.250037 4 7 cbr 200 ------- 1 1.0 5.0 12 12
+ 0.250037 4 7 cbr 200 ------- 1 1.0 5.0 11 11
- 0.250037 4 7 cbr 200 ------- 1 1.0 5.0 11 11
r 0.250058 7 5 cbr 200 ------- 1 1.0 5.0 10 10
+ 0.26 1 6 cbr 200 ------- 1 1.0 5.0 15 15
- 0.26 1 6 cbr 200 ------- 1 1.0 5.0 15 15
h 0.26 1 6 cbr 200 ------- 1 1.0 5.0 16 16
r 0.260021 6 2 cbr 200 ------- 1 1.0 5.0 14 14
+ 0.260021 2 4 cbr 200 ------- 1 1.0 5.0 14 14
- 0.260021 2 4 cbr 200 ------- 1 1.0 5.0 14 14
+ 0.260037 4 7 cbr 200 ------- 1 1.0 5.0 12 12
- 0.260037 4 7 cbr 200 ------- 1 1.0 5.0 12 12
r 0.260058 7 5 cbr 200 ------- 1 1.0 5.0 11 11
+ 0.27 1 6 cbr 200 ------- 1 1.0 5.0 16 16
- 0.27 1 6 cbr 200 ------- 1 1.0 5.0 16 16
h 0.27 1 6 cbr 200 ------- 1 1.0 5.0 17 17
r 0.270021 6 2 cbr 200 ------- 1 1.0 5.0 15 15
+ 0.270021 2 4 cbr 200 ------- 1 1.0 5.0 15 15
- 0.270021 2 4 cbr 200 ------- 1 1.0 5.0 15 15
r 0.270037 2 4 cbr 200 ------- 1 1.0 5.0 14 14
h 0.270037 4 7 cbr 200 ------- 1 1.0 5.0 14 14
r 0.270058 7 5 cbr 200 ------- 1 1.0 5.0 12 12
+ 0.28 1 6 cbr 200 ------- 1 1.0 5.0 17 17
- 0.28 1 6 cbr 200 ------- 1 1.0 5.0 17 17
h 0.28 1 6 cbr 200 ------- 1 1.0 5.0 18 18
r 0.280021 6 2 cbr 200 ------- 1 1.0 5.0 16 16
+ 0.280021 2 4 cbr 200 ------- 1 1.0 5.0 16 16
- 0.280021 2 4 cbr 200 ------- 1 1.0 5.0 16 16
r 0.280037 2 4 cbr 200 ------- 1 1.0 5.0 15 15
h 0.280037 4 7 cbr 200 ------- 1 1.0 5.0 15 15
+ 0.280037 4 7 cbr 200 ------- 1 1.0 5.0 14 14
- 0.280037 4 7 cbr 200 ------- 1 1.0 5.0 14 14
+ 0.29 1 6 cbr 200 ------- 1 1.0 5.0 18 18
- 0.29 1 6 cbr 200 ------- 1 1.0 5.0 18 18
h 0.29 1 6 cbr 200 ------- 1 1.0 5.0 19 19
r 0.290021 6 2 cbr 200 ------- 1 1.0 5.0 17 17
+ 0.290021 2 4 cbr 200 ------- 1 1.0 5.0 17 17
- 0.290021 2 4 cbr 200 ------- 1 1.0 5.0 17 17
r 0.290037 2 4 cbr 200 ------- 1 1.0 5.0 16 16
h 0.290037 4 7 cbr 200 ------- 1 1.0 5.0 16 16
+ 0.290037 4 7 cbr 200 ------- 1 1.0 5.0 15 15
- 0.290037 4 7 cbr 200 ------- 1 1.0 5.0 15 15
r 0.290058 7 5 cbr 200 ------- 1 1.0 5.0 14 14
+ 0.3 1 6 cbr 200 ------- 1 1.0 5.0 19 19
- 0.3 1 6 cbr 200 ------- 1 1.0 5.0 19 19
h 0.3 1 6 cbr 200 ------- 1 1.0 5.0 20 20
r 0.300021 6 2 cbr 200 ------- 1 1.0 5.0 18 18
+ 0.300021 2 4 cbr 200 ------- 1 1.0 5.0 18 18
- 0.300021 2 4 cbr 200 ------- 1 1.0 5.0 18 18
r 0.300037 2 4 cbr 200 ------- 1 1.0 5.0 17 17
h 0.300037 4 7 cbr 200 ------- 1 1.0 5.0 17 17
+ 0.300037 4 7 cbr 200 ------- 1 1.0 5.0 16 16
- 0.300037 4 7 cbr 200 ------- 1 1.0 5.0 16 16
r 0.300058 7 5 cbr 200 ------- 1 1.0 5.0 15 15
+ 0.31 1 6 cbr 200 ------- 1 1.0 5.0 20 20
- 0.31 1 6 cbr 200 ------- 1 1.0 5.0 20 20
h 0.31 1 6 cbr 200 ------- 1 1.0 5.0 21 21
r 0.310021 6 2 cbr 200 ------- 1 1.0 5.0 19 19
d 0.310021 2 4 cbr 200 ------- 1 1.0 5.0 19 19
r 0.310037 2 4 cbr 200 ------- 1 1.0 5.0 18 18
h 0.310037 4 7 cbr 200 ------- 1 1.0 5.0 18 18
+ 0.310037 4 7 cbr 200 ------- 1 1.0 5.0 17 17
- 0.310037 4 7 cbr 200 ------- 1 1.0 5.0 17 17
r 0.310058 7 5 cbr 200 ------- 1 1.0 5.0 16 16
+ 0.32 1 6 cbr 200 ------- 1 1.0 5.0 21 21
- 0.32 1 6 cbr 200 ------- 1 1.0 5.0 21 21
h 0.32 1 6 cbr 200 ------- 1 1.0 5.0 22 22
r 0.320021 6 2 cbr 200 ------- 1 1.0 5.0 20 20
+ 0.320021 2 4 cbr 200 ------- 1 1.0 5.0 20 20
- 0.320021 2 4 cbr 200 ------- 1 1.0 5.0 20 20
+ 0.320037 4 7 cbr 200 ------- 1 1.0 5.0 18 18
- 0.320037 4 7 cbr 200 ------- 1 1.0 5.0 18 18
r 0.320058 7 5 cbr 200 ------- 1 1.0 5.0 17 17
+ 0.33 1 6 cbr 200 ------- 1 1.0 5.0 22 22
- 0.33 1 6 cbr 200 ------- 1 1.0 5.0 22 22
h 0.33 1 6 cbr 200 ------- 1 1.0 5.0 23 23
r 0.330021 6 2 cbr 200 ------- 1 1.0 5.0 21 21
+ 0.330021 2 4 cbr 200 ------- 1 1.0 5.0 21 21
- 0.330021 2 4 cbr 200 ------- 1 1.0 5.0 21 21
r 0.330037 2 4 cbr 200 ------- 1 1.0 5.0 20 20
h 0.330037 4 7 cbr 200 ------- 1 1.0 5.0 20 20
r 0.330058 7 5 cbr 200 ------- 1 1.0 5.0 18 18
+ 0.34 1 6 cbr 200 ------- 1 1.0 5.0 23 23
- 0.34 1 6 cbr 200 ------- 1 1.0 5.0 23 23
h 0.34 1 6 cbr 200 ------- 1 1.0 5.0 24 24
r 0.340021 6 2 cbr 200 ------- 1 1.0 5.0 22 22
+ 0.340021 2 4 cbr 200 ------- 1 1.0 5.0 22 22
- 0.340021 2 4 cbr 200 ------- 1 1.0 5.0 22 22
r 0.340037 2 4 cbr 200 ------- 1 1.0 5.0 21 21
h 0.340037 4 7 cbr 200 ------- 1 1.0 5.0 21 21
+ 0.340037 4 7 cbr 200 ------- 1 1.0 5.0 20 20
- 0.340037 4 7 cbr 200 ------- 1 1.0 5.0 20 20
+ 0.35 1 6 cbr 200 ------- 1 1.0 5.0 24 24
- 0.35 1 6 cbr 200 ------- 1 1.0 5.0 24 24
h 0.35 1 6 cbr 200 ------- 1 1.0 5.0 25 25
r 0.350021 6 2 cbr 200 ------- 1 1.0 5.0 23 23
+ 0.350021 2 4 cbr 200 ------- 1 1.0 5.0 23 23
- 0.350021 2 4 cbr 200 ------- 1 1.0 5.0 23 23
r 0.350037 2 4 cbr 200 ------- 1 1.0 5.0 22 22
h 0.350037 4 7 cbr 200 ------- 1 1.0 5.0 22 22
+ 0.350037 4 7 cbr 200 ------- 1 1.0 5.0 21 21
- 0.350037 4 7 cbr 200 ------- 1 1.0 5.0 21 21
r 0.350058 7 5 cbr 200 ------- 1 1.0 5.0 20 20
+ 0.36 1 6 cbr 200 ------- 1 1.0 5.0 25 25
- 0.36 1 6 cbr 200 ------- 1 1.0 5.0 25 25
h 0.36 1 6 cbr 200 ------- 1 1.0 5.0 26 26
r 0.360021 6 2 cbr 200 ------- 1 1.0 5.0 24 24
+ 0.360021 2 4 cbr 200 ------- 1 1.0 5.0 24 24
- 0.360021 2 4 cbr 200 ------- 1 1.0 5.0 24 24
r 0.360037 2 4 cbr 200 ------- 1 1.0 5.0 23 23
h 0.360037 4 7 cbr 200 ------- 1 1.0 5.0 23 23
+ 0.360037 4 7 cbr 200 ------- 1 1.0 5.0 22 22
- 0.360037 4 7 cbr 200 ------- 1 1.0 5.0 22 22
r 0.360058 7 5 cbr 200 ------- 1 1.0 5.0 21 21
+ 0.37 1 6 cbr 200 ------- 1 1.0 5.0 26 26
- 0.37 1 6 cbr 200 ------- 1 1.0 5.0 26 26
h 0.37 1 6 cbr 200 ------- 1 1.0 5.0 27 27
r 0.370021 6 2 cbr 200 ------- 1 1.0 5.0 25 25
+ 0.370021 2 4 cbr 200 ------- 1 1.0 5.0 25 25
- 0.370021 2 4 cbr 200 ------- 1 1.0 5.0 25 25
r 0.370037 2 4 cbr 200 ------- 1 1.0 5.0 24 24
h 0.370037 4 7 cbr 200 ------- 1 1.0 5.0 24 24
+ 0.370037 4 7 cbr 200 ------- 1 1.0 5.0 23 23
- 0.370037 4 7 cbr 200 ------- 1 1.0 5.0 23 23
r 0.370058 7 5 cbr 200 ------- 1 1.0 5.0 22 22
+ 0.38 1 6 cbr 200 ------- 1 1.0 5.0 27 27
- 0.38 1 6 cbr 200 ------- 1 1.0 5.0 27 27
h 0.38 1 6 cbr 200 ------- 1 1.0 5.0 28 28
r 0.380021 6 2 cbr 200 ------- 1 1.0 5.0 26 26
+ 0.380021 2 4 cbr 200 ------- 1 1.0 5.0 26 26
- 0.380021 2 4 cbr 200 ------- 1 1.0 5.0 26 26
r 0.380037 2 4 cbr 200 ------- 1 1.0 5.0 25 25
h 0.380037 4 7 cbr 200 ------- 1 1.0 5.0 25 25
+ 0.380037 4 7 cbr 200 ------- 1 1.0 5.0 24 24
- 0.380037 4 7 cbr 200 ------- 1 1.0 5.0 24 24
r 0.380058 7 5 cbr 200 ------- 1 1.0 5.0 23 23
+ 0.39 1 6 cbr 200 ------- 1 1.0 5.0 28 28
- 0.39 1 6 cbr 200 ------- 1 1.0 5.0 28 28
h 0.39 1 6 cbr 200 ------- 1 1.0 5.0 29 29
r 0.390021 6 2 cbr 200 ------- 1 1.0 5.0 27 27
+ 0.390021 2 4 cbr 200 ------- 1 1.0 5.0 27 27
- 0.390021 2 4 cbr 200 ------- 1 1.0 5.0 27 27
r 0.390037 2 4 cbr 200 ------- 1 1.0 5.0 26 26
h 0.390037 4 7 cbr 200 ------- 1 1.0 5.0 26 26
+ 0.390037 4 7 cbr 200 ------- 1 1.0 5.0 25 25
- 0.390037 4 7 cbr 200 ------- 1 1.0 5.0 25 25
r 0.390058 7 5 cbr 200 ------- 1 1.0 5.0 24 24
+ 0.4 1 6 cbr 200 ------- 1 1.0 5.0 29 29
- 0.4 1 6 cbr 200 ------- 1 1.0 5.0 29 29
h 0.4 1 6 cbr 200 ------- 1 1.0 5.0 30 30
r 0.400021 6 2 cbr 200 ------- 1 1.0 5.0 28 28
+ 0.400021 2 4 cbr 200 ------- 1 1.0 5.0 28 28
- 0.400021 2 4 cbr 200 ------- 1 1.0 5.0 28 28
r 0.400037 2 4 cbr 200 ------- 1 1.0 5.0 27 27
h 0.400037 4 7 cbr 200 ------- 1 1.0 5.0 27 27
+ 0.400037 4 7 cbr 200 ------- 1 1.0 5.0 26 26
- 0.400037 4 7 cbr 200 ------- 1 1.0 5.0 26 26
r 0.400058 7 5 cbr 200 ------- 1 1.0 5.0 25 25
+ 0.41 1 6 cbr 200 ------- 1 1.0 5.0 30 30
- 0.41 1 6 cbr 200 ------- 1 1.0 5.0 30 30
h 0.41 1 6 cbr 200 ------- 1 1.0 5.0 31 31
r 0.410021 6 2 cbr 200 ------- 1 1.0 5.0 29 29
+ 0.410021 2 4 cbr 200 ------- 1 1.0 5.0 29 29
- 0.410021 2 4 cbr 200 ------- 1 1.0 5.0 29 29
r 0.410037 2 4 cbr 200 ------- 1 1.0 5.0 28 28
h 0.410037 4 7 cbr 200 ------- 1 1.0 5.0 28 28
+ 0.410037 4 7 cbr 200 ------- 1 1.0 5.0 27 27
- 0.410037 4 7 cbr 200 ------- 1 1.0 5.0 27 27
r 0.410058 7 5 cbr 200 ------- 1 1.0 5.0 26 26
+ 0.42 1 6 cbr 200 ------- 1 1.0 5.0 31 31
- 0.42 1 6 cbr 200 ------- 1 1.0 5.0 31 31
h 0.42 1 6 cbr 200 ------- 1 1.0 5.0 32 32
r 0.420021 6 2 cbr 200 ------- 1 1.0 5.0 30 30
+ 0.420021 2 4 cbr 200 ------- 1 1.0 5.0 30 30
- 0.420021 2 4 cbr 200 ------- 1 1.0 5.0 30 30
r 0.420037 2 4 cbr 200 ------- 1 1.0 5.0 29 29
h 0.420037 4 7 cbr 200 ------- 1 1.0 5.0 29 29
+ 0.420037 4 7 cbr 200 ------- 1 1.0 5.0 28 28
- 0.420037 4 7 cbr 200 ------- 1 1.0 5.0 28 28
r 0.420058 7 5 cbr 200 ------- 1 1.0 5.0 27 27
+ 0.43 1 6 cbr 200 ------- 1 1.0 5.0 32 32
- 0.43 1 6 cbr 200 ------- 1 1.0 5.0 32 32
h 0.43 1 6 cbr 200 ------- 1 1.0 5.0 33 33
r 0.430021 6 2 cbr 200 ------- 1 1.0 5.0 31 31
+ 0.430021 2 4 cbr 200 ------- 1 1.0 5.0 31 31
- 0.430021 2 4 cbr 200 ------- 1 1.0 5.0 31 31
r 0.430037 2 4 cbr 200 ------- 1 1.0 5.0 30 30
h 0.430037 4 7 cbr 200 ------- 1 1.0 5.0 30 30
+ 0.430037 4 7 cbr 200 ------- 1 1.0 5.0 29 29
- 0.430037 4 7 cbr 200 ------- 1 1.0 5.0 29 29
r 0.430058 7 5 cbr 200 ------- 1 1.0 5.0 28 28
+ 0.44 1 6 cbr 200 ------- 1 1.0 5.0 33 33
- 0.44 1 6 cbr 200 ------- 1 1.0 5.0 33 33
h 0.44 1 6 cbr 200 ------- 1 1.0 5.0 34 34
r 0.440021 6 2 cbr 200 ------- 1 1.0 5.0 32 32
+ 0.440021 2 4 cbr 200 ------- 1 1.0 5.0 32 32
- 0.440021 2 4 cbr 200 ------- 1 1.0 5.0 32 32
r 0.440037 2 4 cbr 200 ------- 1 1.0 5.0 31 31
h 0.440037 4 7 cbr 200 ------- 1 1.0 5.0 31 31
+ 0.440037 4 7 cbr 200 ------- 1 1.0 5.0 30 30
- 0.440037 4 7 cbr 200 ------- 1 1.0 5.0 30 30
r 0.440058 7 5 cbr 200 ------- 1 1.0 5.0 29 29
+ 0.45 1 6 cbr 200 ------- 1 1.0 5.0 34 34
- 0.45 1 6 cbr 200 ------- 1 1.0 5.0 34 34
h 0.45 1 6 cbr 200 ------- 1 1.0 5.0 35 35
r 0.450021 6 2 cbr 200 ------- 1 1.0 5.0 33 33
+ 0.450021 2 4 cbr 200 ------- 1 1.0 5.0 33 33
- 0.450021 2 4 cbr 200 ------- 1 1.0 5.0 33 33
r 0.450037 2 4 cbr 200 ------- 1 1.0 5.0 32 32
h 0.450037 4 7 cbr 200 ------- 1 1.0 5.0 32 32
+ 0.450037 4 7 cbr 200 ------- 1 1.0 5.0 31 31
- 0.450037 4 7 cbr 200 ------- 1 1.0 5.0 31 31
r 0.450058 7 5 cbr 200 ------- 1 1.0 5.0 30 30
+ 0.46 1 6 cbr 200 ------- 1 1.0 5.0 35 35
- 0.46 1 6 cbr 200 ------- 1 1.0 5.0 35 35
h 0.46 1 6 cbr 200 ------- 1 1.0 5.0 36 36
r 0.460021 6 2 cbr 200 ------- 1 1.0 5.0 34 34
+ 0.460021 2 4 cbr 200 ------- 1 1.0 5.0 34 34
- 0.460021 2 4 cbr 200 ------- 1 1.0 5.0 34 34
r 0.460037 2 4 cbr 200 ------- 1 1.0 5.0 33 33
h 0.460037 4 7 cbr 200 ------- 1 1.0 5.0 33 33
+ 0.460037 4 7 cbr 200 ------- 1 1.0 5.0 32 32
- 0.460037 4 7 cbr 200 ------- 1 1.0 5.0 32 32
r 0.460058 7 5 cbr 200 ------- 1 1.0 5.0 31 31
+ 0.47 1 6 cbr 200 ------- 1 1.0 5.0 36 36
- 0.47 1 6 cbr 200 ------- 1 1.0 5.0 36 36
h 0.47 1 6 cbr 200 ------- 1 1.0 5.0 37 37
r 0.470021 6 2 cbr 200 ------- 1 1.0 5.0 35 35
+ 0.470021 2 4 cbr 200 ------- 1 1.0 5.0 35 35
- 0.470021 2 4 cbr 200 ------- 1 1.0 5.0 35 35
r 0.470037 2 4 cbr 200 ------- 1 1.0 5.0 34 34
h 0.470037 4 7 cbr 200 ------- 1 1.0 5.0 34 34
+ 0.470037 4 7 cbr 200 ------- 1 1.0 5.0 33 33
- 0.470037 4 7 cbr 200 ------- 1 1.0 5.0 33 33
r 0.470058 7 5 cbr 200 ------- 1 1.0 5.0 32 32
+ 0.48 1 6 cbr 200 ------- 1 1.0 5.0 37 37
- 0.48 1 6 cbr 200 ------- 1 1.0 5.0 37 37
h 0.48 1 6 cbr 200 ------- 1 1.0 5.0 38 38
r 0.480021 6 2 cbr 200 ------- 1 1.0 5.0 36 36
+ 0.480021 2 4 cbr 200 ------- 1 1.0 5.0 36 36
- 0.480021 2 4 cbr 200 ------- 1 1.0 5.0 36 36
r 0.480037 2 4 cbr 200 ------- 1 1.0 5.0 35 35
h 0.480037 4 7 cbr 200 ------- 1 1.0 5.0 35 35
+ 0.480037 4 7 cbr 200 ------- 1 1.0 5.0 34 34
- 0.480037 4 7 cbr 200 ------- 1 1.0 5.0 34 34
r 0.480058 7 5 cbr 200 ------- 1 1.0 5.0 33 33
+ 0.49 1 6 cbr 200 ------- 1 1.0 5.0 38 38
- 0.49 1 6 cbr 200 ------- 1 1.0 5.0 38 38
h 0.49 1 6 cbr 200 ------- 1 1.0 5.0 39 39
r 0.490021 6 2 cbr 200 ------- 1 1.0 5.0 37 37
+ 0.490021 2 4 cbr 200 ------- 1 1.0 5.0 37 37
- 0.490021 2 4 cbr 200 ------- 1 1.0 5.0 37 37
r 0.490037 2 4 cbr 200 ------- 1 1.0 5.0 36 36
h 0.490037 4 7 cbr 200 ------- 1 1.0 5.0 36 36
+ 0.490037 4 7 cbr 200 ------- 1 1.0 5.0 35 35
- 0.490037 4 7 cbr 200 ------- 1 1.0 5.0 35 35
r 0.490058 7 5 cbr 200 ------- 1 1.0 5.0 34 34
+ 0.5 1 6 cbr 200 ------- 1 1.0 5.0 39 39
- 0.5 1 6 cbr 200 ------- 1 1.0 5.0 39 39
h 0.5 1 6 cbr 200 ------- 1 1.0 5.0 40 40
r 0.500021 6 2 cbr 200 ------- 1 1.0 5.0 38 38
+ 0.500021 2 4 cbr 200 ------- 1 1.0 5.0 38 38
- 0.500021 2 4 cbr 200 ------- 1 1.0 5.0 38 38
r 0.500037 2 4 cbr 200 ------- 1 1.0 5.0 37 37
h 0.500037 4 7 cbr 200 ------- 1 1.0 5.0 37 37
+ 0.500037 4 7 cbr 200 ------- 1 1.0 5.0 36 36
- 0.500037 4 7 cbr 200 ------- 1 1.0 5.0 36 36
r 0.500058 7 5 cbr 200 ------- 1 1.0 5.0 35 35
+ 0.51 1 6 cbr 200 ------- 1 1.0 5.0 40 40
- 0.51 1 6 cbr 200 ------- 1 1.0 5.0 40 40
h 0.51 1 6 cbr 200 ------- 1 1.0 5.0 41 41
r 0.510021 6 2 cbr 200 ------- 1 1.0 5.0 39 39
+ 0.510021 2 4 cbr 200 ------- 1 1.0 5.0 39 39
- 0.510021 2 4 cbr 200 ------- 1 1.0 5.0 39 39
r 0.510037 2 4 cbr 200 ------- 1 1.0 5.0 38 38
h 0.510037 4 7 cbr 200 ------- 1 1.0 5.0 38 38
+ 0.510037 4 7 cbr 200 ------- 1 1.0 5.0 37 37
- 0.510037 4 7 cbr 200 ------- 1 1.0 5.0 37 37
r 0.510058 7 5 cbr 200 ------- 1 1.0 5.0 36 36
+ 0.52 1 6 cbr 200 ------- 1 1.0 5.0 41 41
- 0.52 1 6 cbr 200 ------- 1 1.0 5.0 41 41
h 0.52 1 6 cbr 200 ------- 1 1.0 5.0 42 42
r 0.520021 6 2 cbr 200 ------- 1 1.0 5.0 40 40
+ 0.520021 2 4 cbr 200 ------- 1 1.0 5.0 40 40
- 0.520021 2 4 cbr 200 ------- 1 1.0 5.0 40 40
r 0.520037 2 4 cbr 200 ------- 1 1.0 5.0 39 39
h 0.520037 4 7 cbr 200 ------- 1 1.0 5.0 39 39
+ 0.520037 4 7 cbr 200 ------- 1 1.0 5.0 38 38
- 0.520037 4 7 cbr 200 ------- 1 1.0 5.0 38 38
r 0.520058 7 5 cbr 200 ------- 1 1.0 5.0 37 37
+ 0.53 1 6 cbr 200 ------- 1 1.0 5.0 42 42
- 0.53 1 6 cbr 200 ------- 1 1.0 5.0 42 42
h 0.53 1 6 cbr 200 ------- 1 1.0 5.0 43 43
r 0.530021 6 2 cbr 200 ------- 1 1.0 5.0 41 41
+ 0.530021 2 4 cbr 200 ------- 1 1.0 5.0 41 41
- 0.530021 2 4 cbr 200 ------- 1 1.0 5.0 41 41
r 0.530037 2 4 cbr 200 ------- 1 1.0 5.0 40 40
h 0.530037 4 7 cbr 200 ------- 1 1.0 5.0 40 40
+ 0.530037 4 7 cbr 200 ------- 1 1.0 5.0 39 39
- 0.530037 4 7 cbr 200 ------- 1 1.0 5.0 39 39
r 0.530058 7 5 cbr 200 ------- 1 1.0 5.0 38 38
+ 0.54 1 6 cbr 200 ------- 1 1.0 5.0 43 43
- 0.54 1 6 cbr 200 ------- 1 1.0 5.0 43 43
h 0.54 1 6 cbr 200 ------- 1 1.0 5.0 44 44
r 0.540021 6 2 cbr 200 ------- 1 1.0 5.0 42 42
+ 0.540021 2 4 cbr 200 ------- 1 1.0 5.0 42 42
- 0.540021 2 4 cbr 200 ------- 1 1.0 5.0 42 42
r 0.540037 2 4 cbr 200 ------- 1 1.0 5.0 41 41
h 0.540037 4 7 cbr 200 ------- 1 1.0 5.0 41 41
+ 0.540037 4 7 cbr 200 ------- 1 1.0 5.0 40 40
- 0.540037 4 7 cbr 200 ------- 1 1.0 5.0 40 40
r 0.540058 7 5 cbr 200 ------- 1 1.0 5.0 39 39
+ 0.55 1 6 cbr 200 ------- 1 1.0 5.0 44 44
- 0.55 1 6 cbr 200 ------- 1 1.0 5.0 44 44
h 0.55 1 6 cbr 200 ------- 1 1.0 5.0 45 45
r 0.550021 6 2 cbr 200 ------- 1 1.0 5.0 43 43
d 0.550021 2 4 cbr 200 ------- 1 1.0 5.0 43 43
r 0.550037 2 4 cbr 200 ------- 1 1.0 5.0 42 42
h 0.550037 4 7 cbr 200 ------- 1 1.0 5.0 42 42
+ 0.550037 4 7 cbr 200 ------- 1 1.0 5.0 41 41
- 0.550037 4 7 cbr 200 ------- 1 1.0 5.0 41 41
r 0.550058 7 5 cbr 200 ------- 1 1.0 5.0 40 40
+ 0.56 1 6 cbr 200 ------- 1 1.0 5.0 45 45
- 0.56 1 6 cbr 200 ------- 1 1.0 5.0 45 45
h 0.56 1 6 cbr 200 ------- 1 1.0 5.0 46 46
r 0.560021 6 2 cbr 200 ------- 1 1.0 5.0 44 44
d 0.560021 2 4 cbr 200 ------- 1 1.0 5.0 44 44
+ 0.560037 4 7 cbr 200 ------- 1 1.0 5.0 42 42
- 0.560037 4 7 cbr 200 ------- 1 1.0 5.0 42 42
r 0.560058 7 5 cbr 200 ------- 1 1.0 5.0 41 41
+ 0.57 1 6 cbr 200 ------- 1 1.0 5.0 46 46
- 0.57 1 6 cbr 200 ------- 1 1.0 5.0 46 46
h 0.57 1 6 cbr 200 ------- 1 1.0 5.0 47 47
r 0.570021 6 2 cbr 200 ------- 1 1.0 5.0 45 45
+ 0.570021 2 4 cbr 200 ------- 1 1.0 5.0 45 45
- 0.570021 2 4 cbr 200 ------- 1 1.0 5.0 45 45
r 0.570058 7 5 cbr 200 ------- 1 1.0 5.0 42 42
+ 0.58 1 6 cbr 200 ------- 1 1.0 5.0 47 47
- 0.58 1 6 cbr 200 ------- 1 1.0 5.0 47 47
h 0.58 1 6 cbr 200 ------- 1 1.0 5.0 48 48
r 0.580021 6 2 cbr 200 ------- 1 1.0 5.0 46 46
+ 0.580021 2 4 cbr 200 ------- 1 1.0 5.0 46 46
- 0.580021 2 4 cbr 200 ------- 1 1.0 5.0 46 46
r 0.580037 2 4 cbr 200 ------- 1 1.0 5.0 45 45
h 0.580037 4 7 cbr 200 ------- 1 1.0 5.0 45 45
+ 0.59 1 6 cbr 200 ------- 1 1.0 5.0 48 48
- 0.59 1 6 cbr 200 ------- 1 1.0 5.0 48 48
h 0.59 1 6 cbr 200 ------- 1 1.0 5.0 49 49
r 0.590021 6 2 cbr 200 ------- 1 1.0 5.0 47 47
+ 0.590021 2 4 cbr 200 ------- 1 1.0 5.0 47 47
- 0.590021 2 4 cbr 200 ------- 1 1.0 5.0 47 47
r 0.590037 2 4 cbr 200 ------- 1 1.0 5.0 46 46
h 0.590037 4 7 cbr 200 ------- 1 1.0 5.0 46 46
+ 0.590037 4 7 cbr 200 ------- 1 1.0 5.0 45 45
- 0.590037 4 7 cbr 200 ------- 1 1.0 5.0 45 45
+ 0.6 1 6 cbr 200 ------- 1 1.0 5.0 49 49
- 0.6 1 6 cbr 200 ------- 1 1.0 5.0 49 49
h 0.6 1 6 cbr 200 ------- 1 1.0 5.0 50 50
r 0.600021 6 2 cbr 200 ------- 1 1.0 5.0 48 48
+ 0.600021 2 4 cbr 200 ------- 1 1.0 5.0 48 48
- 0.600021 2 4 cbr 200 ------- 1 1.0 5.0 48 48
r 0.600037 2 4 cbr 200 ------- 1 1.0 5.0 47 47
h 0.600037 4 7 cbr 200 ------- 1 1.0 5.0 47 47
+ 0.600037 4 7 cbr 200 ------- 1 1.0 5.0 46 46
- 0.600037 4 7 cbr 200 ------- 1 1.0 5.0 46 46
r 0.600058 7 5 cbr 200 ------- 1 1.0 5.0 45 45
+ 0.61 1 6 cbr 200 ------- 1 1.0 5.0 50 50
- 0.61 1 6 cbr 200 ------- 1 1.0 5.0 50 50
h 0.61 1 6 cbr 200 ------- 1 1.0 5.0 51 51
r 0.610021 6 2 cbr 200 ------- 1 1.0 5.0 49 49
+ 0.610021 2 4 cbr 200 ------- 1 1.0 5.0 49 49
- 0.610021 2 4 cbr 200 ------- 1 1.0 5.0 49 49
r 0.610037 2 4 cbr 200 ------- 1 1.0 5.0 48 48
h 0.610037 4 7 cbr 200 ------- 1 1.0 5.0 48 48
+ 0.610037 4 7 cbr 200 ------- 1 1.0 5.0 47 47
- 0.610037 4 7 cbr 200 ------- 1 1.0 5.0 47 47
r 0.610058 7 5 cbr 200 ------- 1 1.0 5.0 46 46
+ 0.62 1 6 cbr 200 ------- 1 1.0 5.0 51 51
- 0.62 1 6 cbr 200 ------- 1 1.0 5.0 51 51
h 0.62 1 6 cbr 200 ------- 1 1.0 5.0 52 52
r 0.620021 6 2 cbr 200 ------- 1 1.0 5.0 50 50
+ 0.620021 2 4 cbr 200 ------- 1 1.0 5.0 50 50
- 0.620021 2 4 cbr 200 ------- 1 1.0 5.0 50 50
r 0.620037 2 4 cbr 200 ------- 1 1.0 5.0 49 49
h 0.620037 4 7 cbr 200 ------- 1 1.0 5.0 49 49
+ 0.620037 4 7 cbr 200 ------- 1 1.0 5.0 48 48
- 0.620037 4 7 cbr 200 ------- 1 1.0 5.0 48 48
r 0.620058 7 5 cbr 200 ------- 1 1.0 5.0 47 47
+ 0.63 1 6 cbr 200 ------- 1 1.0 5.0 52 52
- 0.63 1 6 cbr 200 ------- 1 1.0 5.0 52 52
h 0.63 1 6 cbr 200 ------- 1 1.0 5.0 53 53
r 0.630021 6 2 cbr 200 ------- 1 1.0 5.0 51 51
+ 0.630021 2 4 cbr 200 ------- 1 1.0 5.0 51 51
- 0.630021 2 4 cbr 200 ------- 1 1.0 5.0 51 51
r 0.630037 2 4 cbr 200 ------- 1 1.0 5.0 50 50
h 0.630037 4 7 cbr 200 ------- 1 1.0 5.0 50 50
+ 0.630037 4 7 cbr 200 ------- 1 1.0 5.0 49 49
- 0.630037 4 7 cbr 200 ------- 1 1.0 5.0 49 49
r 0.630058 7 5 cbr 200 ------- 1 1.0 5.0 48 48
+ 0.64 1 6 cbr 200 ------- 1 1.0 5.0 53 53
- 0.64 1 6 cbr 200 ------- 1 1.0 5.0 53 53
h 0.64 1 6 cbr 200 ------- 1 1.0 5.0 54 54
r 0.640021 6 2 cbr 200 ------- 1 1.0 5.0 52 52
+ 0.640021 2 4 cbr 200 ------- 1 1.0 5.0 52 52
- 0.640021 2 4 cbr 200 ------- 1 1.0 5.0 52 52
r 0.640037 2 4 cbr 200 ------- 1 1.0 5.0 51 51
h 0.640037 4 7 cbr 200 ------- 1 1.0 5.0 51 51
+ 0.640037 4 7 cbr 200 ------- 1 1.0 5.0 50 50
- 0.640037 4 7 cbr 200 ------- 1 1.0 5.0 50 50
r 0.640058 7 5 cbr 200 ------- 1 1.0 5.0 49 49
+ 0.65 1 6 cbr 200 ------- 1 1.0 5.0 54 54
- 0.65 1 6 cbr 200 ------- 1 1.0 5.0 54 54
h 0.65 1 6 cbr 200 ------- 1 1.0 5.0 55 55
r 0.650021 6 2 cbr 200 ------- 1 1.0 5.0 53 53
+ 0.650021 2 4 cbr 200 ------- 1 1.0 5.0 53 53
- 0.650021 2 4 cbr 200 ------- 1 1.0 5.0 53 53
r 0.650037 2 4 cbr 200 ------- 1 1.0 5.0 52 52
h 0.650037 4 7 cbr 200 ------- 1 1.0 5.0 52 52
+ 0.650037 4 7 cbr 200 ------- 1 1.0 5.0 51 51
- 0.650037 4 7 cbr 200 ------- 1 1.0 5.0 51 51
r 0.650058 7 5 cbr 200 ------- 1 1.0 5.0 50 50
+ 0.66 1 6 cbr 200 ------- 1 1.0 5.0 55 55
- 0.66 1 6 cbr 200 ------- 1 1.0 5.0 55 55
h 0.66 1 6 cbr 200 ------- 1 1.0 5.0 56 56
r 0.660021 6 2 cbr 200 ------- 1 1.0 5.0 54 54
+ 0.660021 2 4 cbr 200 ------- 1 1.0 5.0 54 54
- 0.660021 2 4 cbr 200 ------- 1 1.0 5.0 54 54
r 0.660037 2 4 cbr 200 ------- 1 1.0 5.0 53 53
h 0.660037 4 7 cbr 200 ------- 1 1.0 5.0 53 53
+ 0.660037 4 7 cbr 200 ------- 1 1.0 5.0 52 52
- 0.660037 4 7 cbr 200 ------- 1 1.0 5.0 52 52
r 0.660058 7 5 cbr 200 ------- 1 1.0 5.0 51 51
+ 0.67 1 6 cbr 200 ------- 1 1.0 5.0 56 56
- 0.67 1 6 cbr 200 ------- 1 1.0 5.0 56 56
h 0.67 1 6 cbr 200 ------- 1 1.0 5.0 57 57
r 0.670021 6 2 cbr 200 ------- 1 1.0 5.0 55 55
+ 0.670021 2 4 cbr 200 ------- 1 1.0 5.0 55 55
- 0.670021 2 4 cbr 200 ------- 1 1.0 5.0 55 55
r 0.670037 2 4 cbr 200 ------- 1 1.0 5.0 54 54
h 0.670037 4 7 cbr 200 ------- 1 1.0 5.0 54 54
+ 0.670037 4 7 cbr 200 ------- 1 1.0 5.0 53 53
- 0.670037 4 7 cbr 200 ------- 1 1.0 5.0 53 53
r 0.670058 7 5 cbr 200 ------- 1 1.0 5.0 52 52
+ 0.68 1 6 cbr 200 ------- 1 1.0 5.0 57 57
- 0.68 1 6 cbr 200 ------- 1 1.0 5.0 57 57
h 0.68 1 6 cbr 200 ------- 1 1.0 5.0 58 58
r 0.680021 6 2 cbr 200 ------- 1 1.0 5.0 56 56
d 0.680021 2 4 cbr 200 ------- 1 1.0 5.0 56 56
r 0.680037 2 4 cbr 200 ------- 1 1.0 5.0 55 55
h 0.680037 4 7 cbr 200 ------- 1 1.0 5.0 55 55
+ 0.680037 4 7 cbr 200 ------- 1 1.0 5.0 54 54
- 0.680037 4 7 cbr 200 ------- 1 1.0 5.0 54 54
r 0.680058 7 5 cbr 200 ------- 1 1.0 5.0 53 53
+ 0.69 1 6 cbr 200 ------- 1 1.0 5.0 58 58
- 0.69 1 6 cbr 200 ------- 1 1.0 5.0 58 58
h 0.69 1 6 cbr 200 ------- 1 1.0 5.0 59 59
r 0.690021 6 2 cbr 200 ------- 1 1.0 5.0 57 57
+ 0.690021 2 4 cbr 200 ------- 1 1.0 5.0 57 57
- 0.690021 2 4 cbr 200 ------- 1 1.0 5.0 57 57
+ 0.690037 4 7 cbr 200 ------- 1 1.0 5.0 55 55
- 0.690037 4 7 cbr 200 ------- 1 1.0 5.0 55 55
r 0.690058 7 5 cbr 200 ------- 1 1.0 5.0 54 54
+ 0.7 1 6 cbr 200 ------- 1 1.0 5.0 59 59
- 0.7 1 6 cbr 200 ------- 1 1.0 5.0 59 59
h 0.7 1 6 cbr 200 ------- 1 1.0 5.0 60 60
r 0.700021 6 2 cbr 200 ------- 1 1.0 5.0 58 58
+ 0.700021 2 4 cbr 200 ------- 1 1.0 5.0 58 58
- 0.700021 2 4 cbr 200 ------- 1 1.0 5.0 58 58
r 0.700037 2 4 cbr 200 ------- 1 1.0 5.0 57 57
h 0.700037 4 7 cbr 200 ------- 1 1.0 5.0 57 57
r 0.700058 7 5 cbr 200 ------- 1 1.0 5.0 55 55
+ 0.71 1 6 cbr 200 ------- 1 1.0 5.0 60 60
- 0.71 1 6 cbr 200 ------- 1 1.0 5.0 60 60
h 0.71 1 6 cbr 200 ------- 1 1.0 5.0 61 61
r 0.710021 6 2 cbr 200 ------- 1 1.0 5.0 59 59
+ 0.710021 2 4 cbr 200 ------- 1 1.0 5.0 59 59
- 0.710021 2 4 cbr 200 ------- 1 1.0 5.0 59 59
r 0.710037 2 4 cbr 200 ------- 1 1.0 5.0 58 58
h 0.710037 4 7 cbr 200 ------- 1 1.0 5.0 58 58
+ 0.710037 4 7 cbr 200 ------- 1 1.0 5.0 57 57
- 0.710037 4 7 cbr 200 ------- 1 1.0 5.0 57 57
+ 0.72 1 6 cbr 200 ------- 1 1.0 5.0 61 61
- 0.72 1 6 cbr 200 ------- 1 1.0 5.0 61 61
h 0.72 1 6 cbr 200 ------- 1 1.0 5.0 62 62
r 0.720021 6 2 cbr 200 ------- 1 1.0 5.0 60 60
+ 0.720021 2 4 cbr 200 ------- 1 1.0 5.0 60 60
- 0.720021 2 4 cbr 200 ------- 1 1.0 5.0 60 60
r 0.720037 2 4 cbr 200 ------- 1 1.0 5.0 59 59
h 0.720037 4 7 cbr 200 ------- 1 1.0 5.0 59 59
+ 0.720037 4 7 cbr 200 ------- 1 1.0 5.0 58 58
- 0.720037 4 7 cbr 200 ------- 1 1.0 5.0 58 58
r 0.720058 7 5 cbr 200 ------- 1 1.0 5.0 57 57
+ 0.73 1 6 cbr 200 ------- 1 1.0 5.0 62 62
- 0.73 1 6 cbr 200 ------- 1 1.0 5.0 62 62
h 0.73 1 6 cbr 200 ------- 1 1.0 5.0 63 63
r 0.730021 6 2 cbr 200 ------- 1 1.0 5.0 61 61
+ 0.730021 2 4 cbr 200 ------- 1 1.0 5.0 61 61
- 0.730021 2 4 cbr 200 ------- 1 1.0 5.0 61 61
r 0.730037 2 4 cbr 200 ------- 1 1.0 5.0 60 60
h 0.730037 4 7 cbr 200 ------- 1 1.0 5.0 60 60
+ 0.730037 4 7 cbr 200 ------- 1 1.0 5.0 59 59
- 0.730037 4 7 cbr 200 ------- 1 1.0 5.0 59 59
r 0.730058 7 5 cbr 200 ------- 1 1.0 5.0 58 58
+ 0.74 1 6 cbr 200 ------- 1 1.0 5.0 63 63
- 0.74 1 6 cbr 200 ------- 1 1.0 5.0 63 63
h 0.74 1 6 cbr 200 ------- 1 1.0 5.0 64 64
r 0.740021 6 2 cbr 200 ------- 1 1.0 5.0 62 62
+ 0.740021 2 4 cbr 200 ------- 1 1.0 5.0 62 62
- 0.740021 2 4 cbr 200 ------- 1 1.0 5.0 62 62
r 0.740037 2 4 cbr 200 ------- 1 1.0 5.0 61 61
h 0.740037 4 7 cbr 200 ------- 1 1.0 5.0 61 61
+ 0.740037 4 7 cbr 200 ------- 1 1.0 5.0 60 60
- 0.740037 4 7 cbr 200 ------- 1 1.0 5.0 60 60
r 0.740058 7 5 cbr 200 ------- 1 1.0 5.0 59 59
+ 0.75 1 6 cbr 200 ------- 1 1.0 5.0 64 64
- 0.75 1 6 cbr 200 ------- 1 1.0 5.0 64 64
h 0.75 1 6 cbr 200 ------- 1 1.0 5.0 65 65
r 0.750021 6 2 cbr 200 ------- 1 1.0 5.0 63 63
+ 0.750021 2 4 cbr 200 ------- 1 1.0 5.0 63 63
- 0.750021 2 4 cbr 200 ------- 1 1.0 5.0 63 63
r 0.750037 2 4 cbr 200 ------- 1 1.0 5.0 62 62
h 0.750037 4 7 cbr 200 ------- 1 1.0 5.0 62 62
+ 0.750037 4 7 cbr 200 ------- 1 1.0 5.0 61 61
- 0.750037 4 7 cbr 200 ------- 1 1.0 5.0 61 61
r 0.750058 7 5 cbr 200 ------- 1 1.0 5.0 60 60
+ 0.76 1 6 cbr 200 ------- 1 1.0 5.0 65 65
- 0.76 1 6 cbr 200 ------- 1 1.0 5.0 65 65
h 0.76 1 6 cbr 200 ------- 1 1.0 5.0 66 66
r 0.760021 6 2 cbr 200 ------- 1 1.0 5.0 64 64
+ 0.760021 2 4 cbr 200 ------- 1 1.0 5.0 64 64
- 0.760021 2 4 cbr 200 ------- 1 1.0 5.0 64 64
r 0.760037 2 4 cbr 200 ------- 1 1.0 5.0 63 63
h 0.760037 4 7 cbr 200 ------- 1 1.0 5.0 63 63