V -t * -v 1.0a5 -a 0
A -t * -n 1 -p 0 -o 0x7fffffff -c 30 -a 1
A -t * -h 1 -m 1073741823 -s 0
c -t * -i 1 -n green
n -t * -a 4 -s 4 -S UP -v circle -c black -i black
n -t * -a 0 -s 0 -S UP -v circle -c black -i black
n -t * -a 5 -s 5 -S UP -v circle -c black -i black
n -t * -a 1 -s 1 -S UP -v circle -c black -i black
n -t * -a 2 -s 2 -S UP -v circle -c black -i black
n -t * -a 3 -s 3 -S UP -v circle -c black -i black
l -t * -s 2 -d 4 -S UP -r 100000000 -D 0.01 -c red
X -t * -n 6 -r 100Mb -D 10ms -o left
L -t * -s 6 -d 0 -o up
L -t * -s 6 -d 1 -o down
L -t * -s 6 -d 2 -o up
X -t * -n 7 -r 100Mb -D 10ms -o left
L -t * -s 7 -d 3 -o up
L -t * -s 7 -d 4 -o down
L -t * -s 7 -d 5 -o up
h -t 0.1 -s 1 -d 6 -p cbr -e 200 -c 1 -i 0 -a 1 -x {1.0 5.0 0 ------- null}
+ -t 0.11 -s 1 -d 6 -p cbr -e 200 -c 1 -i 0 -a 1 -x {1.0 5.0 0 ------- null}
- -t 0.11 -s 1 -d 6 -p cbr -e 200 -c 1 -i 0 -a 1 -x {1.0 5.0 0 ------- null}
h -t 0.11 -s 1 -d 6 -p cbr -e 200 -c 1 -i 0 -a 1 -x {1.0 5.0 -1 ------- null}
h -t 0.11 -s 1 -d 6 -p cbr -e 200 -c 1 -i 1 -a 1 -x {1.0 5.0 1 ------- null}
+ -t 0.12 -s 1 -d 6 -p cbr -e 200 -c 1 -i 1 -a 1 -x {1.0 5.0 1 ------- null}
- -t 0.12 -s 1 -d 6 -p cbr -e 200 -c 1 -i 1 -a 1 -x {1.0 5.0 1 ------- null}
h -t 0.12 -s 1 -d 6 -p cbr -e 200 -c 1 -i 1 -a 1 -x {1.0 5.0 -1 ------- null}
h -t 0.12 -s 1 -d 6 -p cbr -e 200 -c 1 -i 2 -a 1 -x {1.0 5.0 2 ------- null}
r -t 0.12002112 -s 6 -d 2 -p cbr -e 200 -c 1 -i 0 -a 1 -x {1.0 5.0 0 ------- null}
d -t 0.12002112 -s 2 -d 4 -p cbr -e 200 -c 1 -i 0 -a 1 -x {1.0 5.0 0 ------- null}
+ -t 0.13 -s 1 -d 6 -p cbr -e 200 -c 1 -i 2 -a 1 -x {1.0 5.0 2 ------- null}
- -t 0.13 -s 1 -d 6 -p cbr -e 200 -c 1 -i 2 -a 1 -x {1.0 5.0 2 ------- null}
h -t 0.13 -s 1 -d 6 -p cbr -e 200 -c 1 -i 2 -a 1 -x {1.0 5.0 -1 ------- null}
h -t 0.13 -s 1 -d 6 -p cbr -e 200 -c 1 -i 3 -a 1 -x {1.0 5.0 3 ------- null}
r -t 0.13002112 -s 6 -d 2 -p cbr -e 200 -c 1 -i 1 -a 1 -x {1.0 5.0 1 ------- null}
+ -t 0.13002112 -s 2 -d 4 -p cbr -e 200 -c 1 -i 1 -a 1 -x {1.0 5.0 1 ------- null}
- -t 0.13002112 -s 2 -d 4 -p cbr -e 200 -c 1 -i 1 -a 1 -x {1.0 5.0 1 ------- null}
h -t 0.13002112 -s 2 -d 4 -p cbr -e 200 -c 1 -i 1 -a 1 -x {1.0 5.0 -1 ------- null}
+ -t 0.14 -s 1 -d 6 -p cbr -e 200 -c 1 -i 3 -a 1 -x {1.0 5.0 3 ------- null}
- -t 0.14 -s 1 -d 6 -p cbr -e 200 -c 1 -i 3 -a 1 -x {1.0 5.0 3 ------- null}
h -t 0.14 -s 1 -d 6 -p cbr -e 200 -c 1 -i 3 -a 1 -x {1.0 5.0 -1 ------- null}
h -t 0.14 -s 1 -d 6 -p cbr -e 200 -c 1 -i 4 -a 1 -x {1.0 5.0 4 ------- null}
r -t 0.14002112 -s 6 -d 2 -p cbr -e 200 -c 1 -i 2 -a 1 -x {1.0 5.0 2 ------- null}
d -t 0.14002112 -s 2 -d 4 -p cbr -e 200 -c 1 -i 2 -a 1 -x {1.0 5.0 2 ------- null}
r -t 0.14003712 -s 2 -d 4 -p cbr -e 200 -c 1 -i 1 -a 1 -x {1.0 5.0 1 ------- null}
h -t 0.14003712 -s 4 -d 7 -p cbr -e 200 -c 1 -i 1 -a 1 -x {1.0 5.0 1 ------- null}
+ -t 0.15 -s 1 -d 6 -p cbr -e 200 -c 1 -i 4 -a 1 -x {1.0 5.0 4 ------- null}
- -t 0.15 -s 1 -d 6 -p cbr -e 200 -c 1 -i 4 -a 1 -x {1.0 5.0 4 ------- null}
h -t 0.15 -s 1 -d 6 -p cbr -e 200 -c 1 -i 4 -a 1 -x {1.0 5.0 -1 ------- null}
h -t 0.15 -s 1 -d 6 -p cbr -e 200 -c 1 -i 5 -a 1 -x {1.0 5.0 5 ------- null}
r -t 0.15002112 -s 6 -d 2 -p cbr -e 200 -c 1 -i 3 -a 1 -x {1.0 5.0 3 ------- null}
d -t 0.15002112 -s 2 -d 4 -p cbr -e 200 -c 1 -i 3 -a 1 -x {1.0 5.0 3 ------- null}
+ -t 0.15003712 -s 4 -d 7 -p cbr -e 200 -c 1 -i 1 -a 1 -x {1.0 5.0 1 ------- null}
- -t 0.15003712 -s 4 -d 7 -p cbr -e 200 -c 1 -i 1 -a 1 -x {1.0 5.0 1 ------- null}
h -t 0.15003712 -s 4 -d 7 -p cbr -e 200 -c 1 -i 1 -a 1 -x {1.0 5.0 -1 ------- null}
+ -t 0.16 -s 1 -d 6 -p cbr -e 200 -c 1 -i 5 -a 1 -x {1.0 5.0 5 ------- null}
- -t 0.16 -s 1 -d 6 -p cbr -e 200 -c 1 -i 5 -a 1 -x {1.0 5.0 5 ------- null}
h -t 0.16 -s 1 -d 6 -p cbr -e 200 -c 1 -i 5 -a 1 -x {1.0 5.0 -1 ------- null}
h -t 0.16 -s 1 -d 6 -p cbr -e 200 -c 1 -i 6 -a 1 -x {1.0 5.0 6 ------- null}
r -t 0.16002112 -s 6 -d 2 -p cbr -e 200 -c 1 -i 4 -a 1 -x {1.0 5.0 4 ------- null}
+ -t 0.16002112 -s 2 -d 4 -p cbr -e 200 -c 1 -i 4 -a 1 -x {1.0 5.0 4 ------- null}
- -t 0.16002112 -s 2 -d 4 -p cbr -e 200 -c 1 -i 4 -a 1 -x {1.0 5.0 4 ------- null}
h -t 0.16002112 -s 2 -d 4 -p cbr -e 200 -c 1 -i 4 -a 1 -x {1.0 5.0 -1 ------- null}
r -t 0.16005824 -s 7 -d 5 -p cbr -e 200 -c 1 -i 1 -a 1 -x {1.0 5.0 1 ------- null}
+ -t 0.17 -s 1 -d 6 -p cbr -e 200 -c 1 -i 6 -a 1 -x {1.0 5.0 6 ------- null}
- -t 0.17 -s 1 -d 6 -p cbr -e 200 -c 1 -i 6 -a 1 -x {1.0 5.0 6 ------- null}
h -t 0.17 -s 1 -d 6 -p cbr -e 200 -c 1 -i 6 -a 1 -x {1.0 5.0 -1 ------- null}
h -t 0.17 -s 1 -d 6 -p cbr -e 200 -c 1 -i 7 -a 1 -x {1.0 5.0 7 ------- null}
r -t 0.17002112 -s 6 -d 2 -p cbr -e 200 -c 1 -i 5 -a 1 -x {1.0 5.0 5 ------- null}
+ -t 0.17002112 -s 2 -d 4 -p cbr -e 200 -c 1 -i 5 -a 1 -x {1.0 5.0 5 ------- null}
- -t 0.17002112 -s 2 -d 4 -p cbr -e 200 -c 1 -i 5 -a 1 -x {1.0 5.0 5 ------- null}
h -t 0.17002112 -s 2 -d 4 -p cbr -e 200 -c 1 -i 5 -a 1 -x {1.0 5.0 -1 ------- null}
r -t 0.17003712 -s 2 -d 4 -p cbr -e 200 -c 1 -i 4 -a 1 -x {1.0 5.0 4 ------- null}
h -t 0.17003712 -s 4 -d 7 -p cbr -e 200 -c 1 -i 4 -a 1 -x {1.0 5.0 4 ------- null}
+ -t 0.18 -s 1 -d 6 -p cbr -e 200 -c 1 -i 7 -a 1 -x {1.0 5.0 7 ------- null}
- -t 0.18 -s 1 -d 6 -p cbr -e 200 -c 1 -i 7 -a 1 -x {1.0 5.0 7 ------- null}
h -t 0.18 -s 1 -d 6 -p cbr -e 200 -c 1 -i 7 -a 1 -x {1.0 5.0 -1 ------- null}
h -t 0.18 -s 1 -d 6 -p cbr -e 200 -c 1 -i 8 -a 1 -x {1.0 5.0 8 ------- null}
r -t 0.18002112 -s 6 -d 2 -p cbr -e 200 -c 1 -i 6 -a 1 -x {1.0 5.0 6 ------- null}
+ -t 0.18002112 -s 2 -d 4 -p cbr -e 200 -c 1 -i 6 -a 1 -x {1.0 5.0 6 ------- null}
- -t 0.18002112 -s 2 -d 4 -p cbr -e 200 -c 1 -i 6 -a 1 -x {1.0 5.0 6 ------- null}
h -t 0.18002112 -s 2 -d 4 -p cbr -e 200 -c 1 -i 6 -a 1 -x {1.0 5.0 -1 ------- null}
r -t 0.18003712 -s 2 -d 4 -p cbr -e 200 -c 1 -i 5 -a 1 -x {1.0 5.0 5 ------- null}
h -t 0.18003712 -s 4 -d 7 -p cbr -e 200 -c 1 -i 5 -a 1 -x {1.0 5.0 5 ------- null}
+ -t 0.18003712 -s 4 -d 7 -p cbr -e 200 -c 1 -i 4 -a 1 -x {1.0 5.0 4 ------- null}
- -t 0.18003712 -s 4 -d 7 -p cbr -e 200 -c 1 -i 4 -a 1 -x {1.0 5.0 4 ------- null}
h -t 0.18003712 -s 4 -d 7 -p cbr -e 200 -c 1 -i 4 -a 1 -x {1.0 5.0 -1 ------- null}
+ -t 0.19 -s 1 -d 6 -p cbr -e 200 -c 1 -i 8 -a 1 -x {1.0 5.0 8 ------- null}
- -t 0.19 -s 1 -d 6 -p cbr -e 200 -c 1 -i 8 -a 1 -x {1.0 5.0 8 ------- null}
h -t 0.19 -s 1 -d 6 -p cbr -e 200 -c 1 -i 8 -a 1 -x {1.0 5.0 -1 ------- null}
h -t 0.19 -s 1 -d 6 -p cbr -e 200 -c 1 -i 9 -a 1 -x {1.0 5.0 9 ------- null}
r -t 0.19002112 -s 6 -d 2 -p cbr -e 200 -c 1 -i 7 -a 1 -x {1.0 5.0 7 ------- null}
+ -t 0.19002112 -s 2 -d 4 -p cbr -e 200 -c 1 -i 7 -a 1 -x {1.0 5.0 7 ------- null}
- -t 0.19002112 -s 2 -d 4 -p cbr -e 200 -c 1 -i 7 -a 1 -x {1.0 5.0 7 ------- null}
h -t 0.19002112 -s 2 -d 4 -p cbr -e 200 -c 1 -i 7 -a 1 -x {1.0 5.0 -1 ------- null}
r -t 0.19003712 -s 2 -d 4 -p cbr -e 200 -c 1 -i 6 -a 1 -x {1.0 5.0 6 ------- null}
h -t 0.19003712 -s 4 -d 7 -p cbr -e 200 -c 1 -i 6 -a 1 -x {1.0 5.0 6 ------- null}
+ -t 0.19003712 -s 4 -d 7 -p cbr -e 200 -c 1 -i 5 -a 1 -x {1.0 5.0 5 ------- null}
- -t 0.19003712 -s 4 -d 7 -p cbr -e 200 -c 1 -i 5 -a 1 -x {1.0 5.0 5 ------- null}
h -t 0.19003712 -s 4 -d 7 -p cbr -e 200 -c 1 -i 5 -a 1 -x {1.0 5.0 -1 ------- null}
r -t 0.19005824 -s 7 -d 5 -p cbr -e 200 -c 1 -i 4 -a 1 -x {1.0 5.0 4 ------- null}
+ -t 0.2 -s 1 -d 6 -p cbr -e 200 -c 1 -i 9 -a 1 -x {1.0 5.0 9 ------- null}
- -t 0.2 -s 1 -d 6 -p cbr -e 200 -c 1 -i 9 -a 1 -x {1.0 5.0 9 ------- null}
h -t 0.2 -s 1 -d 6 -p cbr -e 200 -c 1 -i 9 -a 1 -x {1.0 5.0 -1 ------- null}
h -t 0.2 -s 1 -d 6 -p cbr -e 200 -c 1 -i 10 -a 1 -x {1.0 5.0 10 ------- null}
r -t 0.20002112 -s 6 -d 2 -p cbr -e 200 -c 1 -i 8 -a 1 -x {1.0 5.0 8 ------- null}
+ -t 0.20002112 -s 2 -d 4 -p cbr -e 200 -c 1 -i 8 -a 1 -x {1.0 5.0 8 ------- null}
- -t 0.20002112 -s 2 -d 4 -p cbr -e 200 -c 1 -i 8 -a 1 -x {1.0 5.0 8 ------- null}
h -t 0.20002112 -s 2 -d 4 -p cbr -e 200 -c 1 -i 8 -a 1 -x {1.0 5.0 -1 ------- null}
r -t 0.20003712 -s 2 -d 4 -p cbr -e 200 -c 1 -i 7 -a 1 -x {1.0 5.0 7 ------- null}
h -t 0.20003712 -s 4 -d 7 -p cbr -e 200 -c 1 -i 7 -a 1 -x {1.0 5.0 7 ------- null}
+ -t 0.20003712 -s 4 -d 7 -p cbr -e 200 -c 1 -i 6 -a 1 -x {1.0 5.0 6 ------- null}
- -t 0.20003712 -s 4 -d 7 -p cbr -e 200 -c 1 -i 6 -a 1 -x {1.0 5.0 6 ------- null}
h -t 0.20003712 -s 4 -d 7 -p cbr -e 200 -c 1 -i 6 -a 1 -x {1.0 5.0 -1 ------- null}
r -t 0.20005824 -s 7 -d 5 -p cbr -e 200 -c 1 -i 5 -a 1 -x {1.0 5.0 5 ------- null}
+ -t 0.21 -s 1 -d 6 -p cbr -e 200 -c 1 -i 10 -a 1 -x {1.0 5.0 10 ------- null}
- -t 0.21 -s 1 -d 6 -p cbr -e 200 -c 1 -i 10 -a 1 -x {1.0 5.0 10 ------- null}
h -t 0.21 -s 1 -d 6 -p cbr -e 200 -c 1 -i 10 -a 1 -x {1.0 5.0 -1 ------- null}
h -t 0.21 -s 1 -d 6 -p cbr -e 200 -c 1 -i 11 -a 1 -x {1.0 5.0 11 ------- null}
r -t 0.21002112 -s 6 -d 2 -p cbr -e 200 -c 1 -i 9 -a 1 -x {1.0 5.0 9 ------- null}
+ -t 0.21002112 -s 2 -d 4 -p cbr -e 200 -c 1 -i 9 -a 1 -x {1.0 5.0 9 ------- null}
- -t 0.21002112 -s 2 -d 4 -p cbr -e 200 -c 1 -i 9 -a 1 -x {1.0 5.0 9 ------- null}
h -t 0.21002112 -s 2 -d 4 -p cbr -e 200 -c 1 -i 9 -a 1 -x {1.0 5.0 -1 ------- null}
r -t 0.21003712 -s 2 -d 4 -p cbr -e 200 -c 1 -i 8 -a 1 -x {1.0 5.0 8 ------- null}
h -t 0.21003712 -s 4 -d 7 -p cbr -e 200 -c 1 -i 8 -a 1 -x {1.0 5.0 8 ------- null}
+ -t 0.21003712 -s 4 -d 7 -p cbr -e 200 -c 1 -i 7 -a 1 -x {1.0 5.0 7 ------- null}
- -t 0.21003712 -s 4 -d 7 -p cbr -e 200 -c 1 -i 7 -a 1 -x {1.0 5.0 7 ------- null}
h -t 0.21003712 -s 4 -d 7 -p cbr -e 200 -c 1 -i 7 -a 1 -x {1.0 5.0 -1 ------- null}
r -t 0.21005824 -s 7 -d 5 -p cbr -e 200 -c 1 -i 6 -a 1 -x {1.0 5.0 6 ------- null}
+ -t 0.22 -s 1 -d 6 -p cbr -e 200 -c 1 -i 11 -a 1 -x {1.0 5.0 11 ------- null}
- -t 0.22 -s 1 -d 6 -p cbr -e 200 -c 1 -i 11 -a 1 -x {1.0 5.0 11 ------- null}
h -t 0.22 -s 1 -d 6 -p cbr -e 200 -c 1 -i 11 -a 1 -x {1.0 5.0 -1 ------- null}
h -t 0.22 -s 1 -d 6 -p cbr -e 200 -c 1 -i 12 -a 1 -x {1.0 5.0 12 ------- null}
r -t 0.22002112 -s 6 -d 2 -p cbr -e 200 -c 1 -i 10 -a 1 -x {1.0 5.0 10 ------- null}
+ -t 0.22002112 -s 2 -d 4 -p cbr -e 200 -c 1 -i 10 -a 1 -x {1.0 5.0 10 ------- null}
- -t 0.22002112 -s 2 -d 4 -p cbr -e 200 -c 1 -i 10 -a 1 -x {1.0 5.0 10 ------- null}
h -t 0.22002112 -s 2 -d 4 -p cbr -e 200 -c 1 -i 10 -a 1 -x {1.0 5.0 -1 ------- null}
r -t 0.22003712 -s 2 -d 4 -p cbr -e 200 -c 1 -i 9 -a 1 -x {1.0 5.0 9 ------- null}
h -t 0.22003712 -s 4 -d 7 -p cbr -e 200 -c 1 -i 9 -a 1 -x {1.0 5.0 9 ------- null}
+ -t 0.22003712 -s 4 -d 7 -p cbr -e 200 -c 1 -i 8 -a 1 -x {1.0 5.0 8 ------- null}
- -t 0.22003712 -s 4 -d 7 -p cbr -e 200 -c 1 -i 8 -a 1 -x {1.0 5.0 8 ------- null}
h -t 0.22003712 -s 4 -d 7 -p cbr -e 200 -c 1 -i 8 -a 1 -x {1.0 5.0 -1 ------- null}
r -t 0.22005824 -s 7 -d 5 -p cbr -e 200 -c 1 -i 7 -a 1 -x {1.0 5.0 7 ------- null}
+ -t 0.23 -s 1 -d 6 -p cbr -e 200 -c 1 -i 12 -a 1 -x {1.0 5.0 12 ------- null}
- -t 0.23 -s 1 -d 6 -p cbr -e 200 -c 1 -i 12 -a 1 -x {1.0 5.0 12 ------- null}
h -t 0.23 -s 1 -d 6 -p cbr -e 200 -c 1 -i 12 -a 1 -x {1.0 5.0 -1 ------- null}
h -t 0.23 -s 1 -d 6 -p cbr -e 200 -c 1 -i 13 -a 1 -x {1.0 5.0 13 ------- null}
r -t 0.23002112 -s 6 -d 2 -p cbr -e 200 -c 1 -i 11 -a 1 -x {1.0 5.0 11 ------- null}
+ -t 0.23002112 -s 2 -d 4 -p cbr -e 200 -c 1 -i 11 -a 1 -x {1.0 5.0 11 ------- null}
- -t 0.23002112 -s 2 -d 4 -p cbr -e 200 -c 1 -i 11 -a 1 -x {1.0 5.0 11 ------- null}
h -t 0.23002112 -s 2 -d 4 -p cbr -e 200 -c 1 -i 11 -a 1 -x {1.0 5.0 -1 ------- null}
r -t 0.23003712 -s 2 -d 4 -p cbr -e 200 -c 1 -i 10 -a 1 -x {1.0 5.0 10 ------- null}
h -t 0.23003712 -s 4 -d 7 -p cbr -e 200 -c 1 -i 10 -a 1 -x {1.0 5.0 10 ------- null}
+ -t 0.23003712 -s 4 -d 7 -p cbr -e 200 -c 1 -i 9 -a 1 -x {1.0 5.0 9 ------- null}
- -t 0.23003712 -s 4 -d 7 -p cbr -e 200 -c 1 -i 9 -a 1 -x {1.0 5.0 9 ------- null}
h -t 0.23003712 -s 4 -d 7 -p cbr -e 200 -c 1 -i 9 -a 1 -x {1.0 5.0 -1 ------- null}
r -t 0.23005824 -s 7 -d 5 -p cbr -e 200 -c 1 -i 8 -a 1 -x {1.0 5.0 8 ------- null}
+ -t 0.24 -s 1 -d 6 -p cbr -e 200 -c 1 -i 13 -a 1 -x {1.0 5.0 13 ------- null}
- -t 0.24 -s 1 -d 6 -p cbr -e 200 -c 1 -i 13 -a 1 -x {1.0 5.0 13 ------- null}
h -t 0.24 -s 1 -d 6 -p cbr -e 200 -c 1 -i 13 -a 1 -x {1.0 5.0 -1 ------- null}
h -t 0.24 -s 1 -d 6 -p cbr -e 200 -c 1 -i 14 -a 1 -x {1.0 5.0 14 ------- null}
r -t 0.24002112 -s 6 -d 2 -p cbr -e 200 -c 1 -i 12 -a 1 -x {1.0 5.0 12 ------- null}
+ -t 0.24002112 -s 2 -d 4 -p cbr -e 200 -c 1 -i 12 -a 1 -x {1.0 5.0 12 ------- null}
- -t 0.24002112 -s 2 -d 4 -p cbr -e 200 -c 1 -i 12 -a 1 -x {1.0 5.0 12 ------- null}
h -t 0.24002112 -s 2 -d 4 -p cbr -e 200 -c 1 -i 12 -a 1 -x {1.0 5.0 -1 ------- null}
r -t 0.24003712 -s 2 -d 4 -p cbr -e 200 -c 1 -i 11 -a 1 -x {1.0 5.0 11 ------- null}
h -t 0.24003712 -s 4 -d 7 -p cbr -e 200 -c 1 -i 11 -a 1 -x {1.0 5.0 11 ------- null}
+ -t 0.24003712 -s 4 -d 7 -p cbr -e 200 -c 1 -i 10 -a 1 -x {1.0 5.0 10 ------- null}
- -t 0.24003712 -s 4 -d 7 -p cbr -e 200 -c 1 -i 10 -a 1 -x {1.0 5.0 10 ------- null}
h -t 0.24003712 -s 4 -d 7 -p cbr -e 200 -c 1 -i 10 -a 1 -x {1.0 5.0 -1 ------- null}
r -t 0.24005824 -s 7 -d 5 -p cbr -e 200 -c 1 -i 9 -a 1 -x {1.0 5.0 9 ------- null}
+ -t 0.25 -s 1 -d 6 -p cbr -e 200 -c 1 -i 14 -a 1 -x {1.0 5.0 14 ------- null}
- -t 0.25 -s 1 -d 6 -p cbr -e 200 -c 1 -i 14 -a 1 -x {1.0 5.0 14 ------- null}
h -t 0.25 -s 1 -d 6 -p cbr -e 200 -c 1 -i 14 -a 1 -x {1.0 5.0 -1 ------- null}
h -t 0.25 -s 1 -d 6 -p cbr -e 200 -c 1 -i 15 -a 1 -x {1.0 5.0 15 ------- null}
r -t 0.25002112 -s 6 -d 2 -p cbr -e 200 -c 1 -i 13 -a 1 -x {1.0 5.0 13 ------- null}
d -t 0.25002112 -s 2 -d 4 -p cbr -e 200 -c 1 -i 13 -a 1 -x {1.0 5.0 13 ------- null}
r -t 0.25003712 -s 2 -d 4 -p cbr -e 200 -c 1 -i 12 -a 1 -x {1.0 5.0 12 ------- null}
h -t 0.25003712 -s 4 -d 7 -p cbr -e 200 -c 1 -i 12 -a 1 -x {1.0 5.0 12 ------- null}
+ -t 0.25003712 -s 4 -d 7 -p cbr -e 200 -c 1 -i 11 -a 1 -x {1.0 5.0 11 ------- null}
- -t 0.25003712 -s 4 -d 7 -p cbr -e 200 -c 1 -i 11 -a 1 -x {1.0 5.0 11 ------- null}
h -t 0.25003712 -s 4 -d 7 -p cbr -e 200 -c 1 -i 11 -a 1 -x {1.0 5.0 -1 ------- null}
r -t 0.25005824 -s 7 -d 5 -p cbr -e 200 -c 1 -i 10 -a 1 -x {1.0 5.0 10 ------- null}
+ -t 0.26 -s 1 -d 6 -p cbr -e 200 -c 1 -i 15 -a 1 -x {1.0 5.0 15 ------- null}
- -t 0.26 -s 1 -d 6 -p cbr -e 200 -c 1 -i 15 -a 1 -x {1.0 5.0 15 ------- null}
h -t 0.26 -s 1 -d 6 -p cbr -e 200 -c 1 -i 15 -a 1 -x {1.0 5.0 -1 ------- null}
h -t 0.26 -s 1 -d 6 -p cbr -e 200 -c 1 -i 16 -a 1 -x {1.0 5.0 16 ------- null}
r -t 0.26002112 -s 6 -d 2 -p cbr -e 200 -c 1 -i 14 -a 1 -x {1.0 5.0 14 ------- null}
+ -t 0.26002112 -s 2 -d 4 -p cbr -e 200 -c 1 -i 14 -a 1 -x {1.0 5.0 14 ------- null}
- -t 0.26002112 -s 2 -d 4 -p cbr -e 200 -c 1 -i 14 -a 1 -x {1.0 5.0 14 ------- null}
h -t 0.26002112 -s 2 -d 4 -p cbr -e 200 -c 1 -i 14 -a 1 -x {1.0 5.0 -1 ------- null}
+ -t 0.26003712 -s 4 -d 7 -p cbr -e 200 -c 1 -i 12 -a 1 -x {1.0 5.0 12 ------- null}
- -t 0.26003712 -s 4 -d 7 -p cbr -e 200 -c 1 -i 12 -a 1 -x {1.0 5.0 12 ------- null}
h -t 0.26003712 -s 4 -d 7 -p cbr -e 200 -c 1 -i 12 -a 1 -x {1.0 5.0 -1 ------- null}
r -t 0.26005824 -s 7 -d 5 -p cbr -e 200 -c 1 -i 11 -a 1 -x {1.0 5.0 11 ------- null}
+ -t 0.27 -s 1 -d 6 -p cbr -e 200 -c 1 -i 16 -a 1 -x {1.0 5.0 16 ------- null}
- -t 0.27 -s 1 -d 6 -p cbr -e 200 -c 1 -i 16 -a 1 -x {1.0 5.0 16 ------- null}
h -t 0.27 -s 1 -d 6 -p cbr -e 200 -c 1 -i 16 -a 1 -x {1.0 5.0 -1 ------- null}
h -t 0.27 -s 1 -d 6 -p cbr -e 200 -c 1 -i 17 -a 1 -x {1.0 5.0 17 ------- null}
r -t 0.27002112 -s 6 -d 2 -p cbr -e 200 -c 1 -i 15 -a 1 -x {1.0 5.0 15 ------- null}
+ -t 0.27002112 -s 2 -d 4 -p cbr -e 200 -c 1 -i 15 -a 1 -x {1.0 5.0 15 ------- null}
- -t 0.27002112 -s 2 -d 4 -p cbr -e 200 -c 1 -i 15 -a 1 -x {1.0 5.0 15 ------- null}
h -t 0.27002112 -s 2 -d 4 -p cbr -e 200 -c 1 -i 15 -a 1 -x {1.0 5.0 -1 ------- null}
r -t 0.27003712 -s 2 -d 4 -p cbr -e 200 -c 1 -i 14 -a 1 -x {1.0 5.0 14 ------- null}
h -t 0.27003712 -s 4 -d 7 -p cbr -e 200 -c 1 -i 14 -a 1 -x {1.0 5.0 14 ------- null}
r -t 0.27005824 -s 7 -d 5 -p cbr -e 200 -c 1 -i 12 -a 1 -x {1.0 5.0 12 ------- null}
+ -t 0.28 -s 1 -d 6 -p cbr -e 200 -c 1 -i 17 -a 1 -x {1.0 5.0 17 ------- null}
- -t 0.28 -s 1 -d 6 -p cbr -e 200 -c 1 -i 17 -a 1 -x {1.0 5.0 17 ------- null}
h -t 0.28 -s 1 -d 6 -p cbr -e 200 -c 1 -i 17 -a 1 -x {1.0 5.0 -1 ------- null}
h -t 0.28 -s 1 -d 6 -p cbr -e 200 -c 1 -i 18 -a 1 -x {1.0 5.0 18 ------- null}
r -t 0.28002112 -s 6 -d 2 -p cbr -e 200 -c 1 -i 16 -a 1 -x {1.0 5.0 16 ------- null}
+ -t 0.28002112 -s 2 -d 4 -p cbr -e 200 -c 1 -i 16 -a 1 -x {1.0 5.0 16 ------- null}
- -t 0.28002112 -s 2 -d 4 -p cbr -e 200 -c 1 -i 16 -a 1 -x {1.0 5.0 16 ------- null}
h -t 0.28002112 -s 2 -d 4 -p cbr -e 200 -c 1 -i 16 -a 1 -x {1.0 5.0 -1 ------- null}
r -t 0.28003712 -s 2 -d 4 -p cbr -e 200 -c 1 -i 15 -a 1 -x {1.0 5.0 15 ------- null}
h -t 0.28003712 -s 4 -d 7 -p cbr -e 200 -c 1 -i 15 -a 1 -x {1.0 5.0 15 ------- null}
+ -t 0.28003712 -s 4 -d 7 -p cbr -e 200 -c 1 -i 14 -a 1 -x {1.0 5.0 14 ------- null}
- -t 0.28003712 -s 4 -d 7 -p cbr -e 200 -c 1 -i 14 -a 1 -x {1.0 5.0 14 ------- null}
h -t 0.28003712 -s 4 -d 7 -p cbr -e 200 -c 1 -i 14 -a 1 -x {1.0 5.0 -1 ------- null}
+ -t 0.29 -s 1 -d 6 -p cbr -e 200 -c 1 -i 18 -a 1 -x {1.0 5.0 18 ------- null}
- -t 0.29 -s 1 -d 6 -p cbr -e 200 -c 1 -i 18 -a 1 -x {1.0 5.0 18 ------- null}
h -t 0.29 -s 1 -d 6 -p cbr -e 200 -c 1 -i 18 -a 1 -x {1.0 5.0 -1 ------- null}
h -t 0.29 -s 1 -d 6 -p cbr -e 200 -c 1 -i 19 -a 1 -x {1.0 5.0 19 ------- null}
r -t 0.29002112 -s 6 -d 2 -p cbr -e 200 -c 1 -i 17 -a 1 -x {1.0 5.0 17 ------- null}
+ -t 0.29002112 -s 2 -d 4 -p cbr -e 200 -c 1 -i 17 -a 1 -x {1.0 5.0 17 ------- null}
- -t 0.29002112 -s 2 -d 4 -p cbr -e 200 -c 1 -i 17 -a 1 -x {1.0 5.0 17 ------- null}
h -t 0.29002112 -s 2 -d 4 -p cbr -e 200 -c 1 -i 17 -a 1 -x {1.0 5.0 -1 ------- null}
r -t 0.29003712 -s 2 -d 4 -p cbr -e 200 -c 1 -i 16 -a 1 -x {1.0 5.0 16 ------- null}
h -t 0.29003712 -s 4 -d 7 -p cbr -e 200 -c 1 -i 16 -a 1 -x {1.0 5.0 16 ------- null}
+ -t 0.29003712 -s 4 -d 7 -p cbr -e 200 -c 1 -i 15 -a 1 -x {1.0 5.0 15 ------- null}
- -t 0.29003712 -s 4 -d 7 -p cbr -e 200 -c 1 -i 15 -a 1 -x {1.0 5.0 15 ------- null}
h -t 0.29003712 -s 4 -d 7 -p cbr -e 200 -c 1 -i 15 -a 1 -x {1.0 5.0 -1 ------- null}
r -t 0.29005824 -s 7 -d 5 -p cbr -e 200 -c 1 -i 14 -a 1 -x {1.0 5.0 14 ------- null}
+ -t 0.3 -s 1 -d 6 -p cbr -e 200 -c 1 -i 19 -a 1 -x {1.0 5.0 19 ------- null}
- -t 0.3 -s 1 -d 6 -p cbr -e 200 -c 1 -i 19 -a 1 -x {1.0 5.0 19 ------- null}
h -t 0.3 -s 1 -d 6 -p cbr -e 200 -c 1 -i 19 -a 1 -x {1.0 5.0 -1 ------- null}
h -t 0.3 -s 1 -d 6 -p cbr -e 200 -c 1 -i 20 -a 1 -x {1.0 5.0 20 ------- null}
r -t 0.30002112 -s 6 -d 2 -p cbr -e 200 -c 1 -i 18 -a 1 -x {1.0 5.0 18 ------- null}
+ -t 0.30002112 -s 2 -d 4 -p cbr -e 200 -c 1 -i 18 -a 1 -x {1.0 5.0 18 ------- null}
- -t 0.30002112 -s 2 -d 4 -p cbr -e 200 -c 1 -i 18 -a 1 -x {1.0 5.0 18 ------- null}
h -t 0.30002112 -s 2 -d 4 -p cbr -e 200 -c 1 -i 18 -a 1 -x {1.0 5.0 -1 ------- null}
r -t 0.30003712 -s 2 -d 4 -p cbr -e 200 -c 1 -i 17 -a 1 -x {1.0 5.0 17 ------- null}
h -t 0.30003712 -s 4 -d 7 -p cbr -e 200 -c 1 -i 17 -a 1 -x {1.0 5.0 17 ------- null}
+ -t 0.30003712 -s 4 -d 7 -p cbr -e 200 -c 1 -i 16 -a 1 -x {1.0 5.0 16 ------- null}
- -t 0.30003712 -s 4 -d 7 -p cbr -e 200 -c 1 -i 16 -a 1 -x {1.0 5.0 16 ------- null}
h -t 0.30003712 -s 4 -d 7 -p cbr -e 200 -c 1 -i 16 -a 1 -x {1.0 5.0 -1 ------- null}
r -t 0.30005824 -s 7 -d 5 -p cbr -e 200 -c 1 -i 15 -a 1 -x {1.0 5.0 15 ------- null}
+ -t 0.31 -s 1 -d 6 -p cbr -e 200 -c 1 -i 20 -a 1 -x {1.0 5.0 20 ------- null}
- -t 0.31 -s 1 -d 6 -p cbr -e 200 -c 1 -i 20 -a 1 -x {1.0 5.0 20 ------- null}
h -t 0.31 -s 1 -d 6 -p cbr -e 200 -c 1 -i 20 -a 1 -x {1.0 5.0 -1 ------- null}
h -t 0.31 -s 1 -d 6 -p cbr -e 200 -c 1 -i 21 -a 1 -x {1.0 5.0 21 ------- null}
r -t 0.31002112 -s 6 -d 2 -p cbr -e 200 -c 1 -i 19 -a 1 -x {1.0 5.0 19 ------- null}
d -t 0.31002112 -s 2 -d 4 -p cbr -e 200 -c 1 -i 19 -a 1 -x {1.0 5.0 19 ------- null}
r -t 0.31003712 -s 2 -d 4 -p cbr -e 200 -c 1 -i 18 -a 1 -x {1.0 5.0 18 ------- null}
h -t 0.31003712 -s 4 -d 7 -p cbr -e 200 -c 1 -i 18 -a 1 -x {1.0 5.0 18 ------- null}
+ -t 0.31003712 -s 4 -d 7 -p cbr -e 200 -c 1 -i 17 -a 1 -x {1.0 5.0 17 ------- null}
- -t 0.31003712 -s 4 -d 7 -p cbr -e 200 -c 1 -i 17 -a 1 -x {1.0 5.0 17 ------- null}
h -t 0.31003712 -s 4 -d 7 -p cbr -e 200 -c 1 -i 17 -a 1 -x {1.0 5.0 -1 ------- null}
r -t 0.31005824 -s 7 -d 5 -p cbr -e 200 -c 1 -i 16 -a 1 -x {1.0 5.0 16 ------- null}
+ -t 0.32 -s 1 -d 6 -p cbr -e 200 -c 1 -i 21 -a 1 -x {1.0 5.0 21 ------- null}
- -t 0.32 -s 1 -d 6 -p cbr -e 200 -c 1 -i 21 -a 1 -x {1.0 5.0 21 ------- null}
h -t 0.32 -s 1 -d 6 -p cbr -e 200 -c 1 -i 21 -a 1 -x {1.0 5.0 -1 ------- null}
h -t 0.32 -s 1 -d 6 -p cbr -e 200 -c 1 -i 22 -a 1 -x {1.0 5.0 22 ------- null}
r -t 0.32002112 -s 6 -d 2 -p cbr -e 200 -c 1 -i 20 -a 1 -x {1.0 5.0 20 ------- null}
+ -t 0.32002112 -s 2 -d 4 -p cbr -e 200 -c 1 -i 20 -a 1 -x {1.0 5.0 20 ------- null}
- -t 0.32002112 -s 2 -d 4 -p cbr -e 200 -c 1 -i 20 -a 1 -x {1.0 5.0 20 ------- null}
h -t 0.32002112 -s 2 -d 4 -p cbr -e 200 -c 1 -i 20 -a 1 -x {1.0 5.0 -1 ------- null}
+ -t 0.32003712 -s 4 -d 7 -p cbr -e 200 -c 1 -i 18 -a 1 -x {1.0 5.0 18 ------- null}
- -t 0.32003712 -s 4 -d 7 -p cbr -e 200 -c 1 -i 18 -a 1 -x {1.0 5.0 18 ------- null}
h -t 0.32003712 -s 4 -d 7 -p cbr -e 200 -c 1 -i 18 -a 1 -x {1.0 5.0 -1 ------- null}
r -t 0.32005824 -s 7 -d 5 -p cbr -e 200 -c 1 -i 17 -a 1 -x {1.0 5.0 17 ------- null}
+ -t 0.33 -s 1 -d 6 -p cbr -e 200 -c 1 -i 22 -a 1 -x {1.0 5.0 22 ------- null}
- -t 0.33 -s 1 -d 6 -p cbr -e 200 -c 1 -i 22 -a 1 -x {1.0 5.0 22 ------- null}
h -t 0.33 -s 1 -d 6 -p cbr -e 200 -c 1 -i 22 -a 1 -x {1.0 5.0 -1 ------- null}
h -t 0.33 -s 1 -d 6 -p cbr -e 200 -c 1 -i 23 -a 1 -x {1.0 5.0 23 ------- null}
r -t 0.33002112 -s 6 -d 2 -p cbr -e 200 -c 1 -i 21 -a 1 -x {1.0 5.0 21 ------- null}
+ -t 0.33002112 -s 2 -d 4 -p cbr -e 200 -c 1 -i 21 -a 1 -x {1.0 5.0 21 ------- null}
- -t 0.33002112 -s 2 -d 4 -p cbr -e 200 -c 1 -i 21 -a 1 -x {1.0 5.0 21 ------- null}
h -t 0.33002112 -s 2 -d 4 -p cbr -e 200 -c 1 -i 21 -a 1 -x {1.0 5.0 -1 ------- null}
r -t 0.33003712 -s 2 -d 4 -p cbr -e 200 -c 1 -i 20 -a 1 -x {1.0 5.0 20 ------- null}
h -t 0.33003712 -s 4 -d 7 -p cbr -e 200 -c 1 -i 20 -a 1 -x {1.0 5.0 20 ------- null}
r -t 0.33005824 -s 7 -d 5 -p cbr -e 200 -c 1 -i 18 -a 1 -x {1.0 5.0 18 ------- null}
+ -t 0.34 -s 1 -d 6 -p cbr -e 200 -c 1 -i 23 -a 1 -x {1.0 5.0 23 ------- null}
- -t 0.34 -s 1 -d 6 -p cbr -e 200 -c 1 -i 23 -a 1 -x {1.0 5.0 23 ------- null}
h -t 0.34 -s 1 -d 6 -p cbr -e 200 -c 1 -i 23 -a 1 -x {1.0 5.0 -1 ------- null}
h -t 0.34 -s 1 -d 6 -p cbr -e 200 -c 1 -i 24 -a 1 -x {1.0 5.0 24 ------- null}
r -t 0.34002112 -s 6 -d 2 -p cbr -e 200 -c 1 -i 22 -a 1 -x {1.0 5.0 22 ------- null}
+ -t 0.34002112 -s 2 -d 4 -p cbr -e 200 -c 1 -i 22 -a 1 -x {1.0 5.0 22 ------- null}
- -t 0.34002112 -s 2 -d 4 -p cbr -e 200 -c 1 -i 22 -a 1 -x {1.0 5.0 22 ------- null}
h -t 0.34002112 -s 2 -d 4 -p cbr -e 200 -c 1 -i 22 -a 1 -x {1.0 5.0 -1 ------- null}
r -t 0.34003712 -s 2 -d 4 -p cbr -e 200 -c 1 -i 21 -a 1 -x {1.0 5.0 21 ------- null}
h -t 0.34003712 -s 4 -d 7 -p cbr -e 200 -c 1 -i 21 -a 1 -x {1.0 5.0 21 ------- null}
+ -t 0.34003712 -s 4 -d 7 -p cbr -e 200 -c 1 -i 20 -a 1 -x {1.0 5.0 20 ------- null}
- -t 0.34003712 -s 4 -d 7 -p cbr -e 200 -c 1 -i 20 -a 1 -x {1.0 5.0 20 ------- null}
h -t 0.34003712 -s 4 -d 7 -p cbr -e 200 -c 1 -i 20 -a 1 -x {1.0 5.0 -1 ------- null}
+ -t 0.35 -s 1 -d 6 -p cbr -e 200 -c 1 -i 24 -a 1 -x {1.0 5.0 24 ------- null}
- -t 0.35 -s 1 -d 6 -p cbr -e 200 -c 1 -i 24 -a 1 -x {1.0 5.0 24 ------- null}
h -t 0.35 -s 1 -d 6 -p cbr -e 200 -c 1 -i 24 -a 1 -x {1.0 5.0 -1 ------- null}
h -t 0.35 -s 1 -d 6 -p cbr -e 200 -c 1 -i 25 -a 1 -x {1.0 5.0 25 ------- null}
r -t 0.35002112 -s 6 -d 2 -p cbr -e 200 -c 1 -i 23 -a 1 -x {1.0 5.0 23 ------- null}
+ -t 0.35002112 -s 2 -d 4 -p cbr -e 200 -c 1 -i 23 -a 1 -x {1.0 5.0 23 ------- null}
- -t 0.35002112 -s 2 -d 4 -p cbr -e 200 -c 1 -i 23 -a 1 -x {1.0 5.0 23 ------- null}
h -t 0.35002112 -s 2 -d 4 -p cbr -e 200 -c 1 -i 23 -a 1 -x {1.0 5.0 -1 ------- null}
r -t 0.35003712 -s 2 -d 4 -p cbr -e 200 -c 1 -i 22 -a 1 -x {1.0 5.0 22 ------- null}
h -t 0.35003712 -s 4 -d 7 -p cbr -e 200 -c 1 -i 22 -a 1 -x {1.0 5.0 22 ------- null}
+ -t 0.35003712 -s 4 -d 7 -p cbr -e 200 -c 1 -i 21 -a 1 -x {1.0 5.0 21 ------- null}
- -t 0.35003712 -s 4 -d 7 -p cbr -e 200 -c 1 -i 21 -a 1 -x {1.0 5.0 21 ------- null}
h -t 0.35003712 -s 4 -d 7 -p cbr -e 200 -c 1 -i 21 -a 1 -x {1.0 5.0 -1 ------- null}
r -t 0.35005824 -s 7 -d 5 -p cbr -e 200 -c 1 -i 20 -a 1 -x {1.0 5.0 20 ------- null}
+ -t 0.36 -s 1 -d 6 -p cbr -e 200 -c 1 -i 25 -a 1 -x {1.0 5.0 25 ------- null}
- -t 0.36 -s 1 -d 6 -p cbr -e 200 -c 1 -i 25 -a 1 -x {1.0 5.0 25 ------- null}
h -t 0.36 -s 1 -d 6 -p cbr -e 200 -c 1 -i 25 -a 1 -x {1.0 5.0 -1 ------- null}
h -t 0.36 -s 1 -d 6 -p cbr -e 200 -c 1 -i 26 -a 1 -x {1.0 5.0 26 ------- null}
r -t 0.36002112 -s 6 -d 2 -p cbr -e 200 -c 1 -i 24 -a 1 -x {1.0 5.0 24 ------- null}
+ -t 0.36002112 -s 2 -d 4 -p cbr -e 200 -c 1 -i 24 -a 1 -x {1.0 5.0 24 ------- null}
- -t 0.36002112 -s 2 -d 4 -p cbr -e 200 -c 1 -i 24 -a 1 -x {1.0 5.0 24 ------- null}
h -t 0.36002112 -s 2 -d 4 -p cbr -e 200 -c 1 -i 24 -a 1 -x {1.0 5.0 -1 ------- null}
r -t 0.36003712 -s 2 -d 4 -p cbr -e 200 -c 1 -i 23 -a 1 -x {1.0 5.0 23 ------- null}
h -t 0.36003712 -s 4 -d 7 -p cbr -e 200 -c 1 -i 23 -a 1 -x {1.0 5.0 23 ------- null}
+ -t 0.36003712 -s 4 -d 7 -p cbr -e 200 -c 1 -i 22 -a 1 -x {1.0 5.0 22 ------- null}
- -t 0.36003712 -s 4 -d 7 -p cbr -e 200 -c 1 -i 22 -a 1 -x {1.0 5.0 22 ------- null}
h -t 0.36003712 -s 4 -d 7 -p cbr -e 200 -c 1 -i 22 -a 1 -x {1.0 5.0 -1 ------- null}
r -t 0.36005824 -s 7 -d 5 -p cbr -e 200 -c 1 -i 21 -a 1 -x {1.0 5.0 21 ------- null}
+ -t 0.37 -s 1 -d 6 -p cbr -e 200 -c 1 -i 26 -a 1 -x {1.0 5.0 26 ------- null}
- -t 0.37 -s 1 -d 6 -p cbr -e 200 -c 1 -i 26 -a 1 -x {1.0 5.0 26 ------- null}
h -t 0.37 -s 1 -d 6 -p cbr -e 200 -c 1 -i 26 -a 1 -x {1.0 5.0 -1 ------- null}
h -t 0.37 -s 1 -d 6 -p cbr -e 200 -c 1 -i 27 -a 1 -x {1.0 5.0 27 ------- null}
r -t 0.37002112 -s 6 -d 2 -p cbr -e 200 -c 1 -i 25 -a 1 -x {1.0 5.0 25 ------- null}
+ -t 0.37002112 -s 2 -d 4 -p cbr -e 200 -c 1 -i 25 -a 1 -x {1.0 5.0 25 ------- null}
- -t 0.37002112 -s 2 -d 4 -p cbr -e 200 -c 1 -i 25 -a 1 -x {1.0 5.0 25 ------- null}
h -t 0.37002112 -s 2 -d 4 -p cbr -e 200 -c 1 -i 25 -a 1 -x {1.0 5.0 -1 ------- null}
r -t 0.37003712 -s 2 -d 4 -p cbr -e 200 -c 1 -i 24 -a 1 -x {1.0 5.0 24 ------- null}
h -t 0.37003712 -s 4 -d 7 -p cbr -e 200 -c 1 -i 24 -a 1 -x {1.0 5.0 24 ------- null}
+ -t 0.37003712 -s 4 -d 7 -p cbr -e 200 -c 1 -i 23 -a 1 -x {1.0 5.0 23 ------- null}
- -t 0.37003712 -s 4 -d 7 -p cbr -e 200 -c 1 -i 23 -a 1 -x {1.0 5.0 23 ------- null}
h -t 0.37003712 -s 4 -d 7 -p cbr -e 200 -c 1 -i 23 -a 1 -x {1.0 5.0 -1 ------- null}
r -t 0.37005824 -s 7 -d 5 -p cbr -e 200 -c 1 -i 22 -a 1 -x {1.0 5.0 22 ------- null}
+ -t 0.38 -s 1 -d 6 -p cbr -e 200 -c 1 -i 27 -a 1 -x {1.0 5.0 27 ------- null}
- -t 0.38 -s 1 -d 6 -p cbr -e 200 -c 1 -i 27 -a 1 -x {1.0 5.0 27 ------- null}
h -t 0.38 -s 1 -d 6 -p cbr -e 200 -c 1 -i 27 -a 1 -x {1.0 5.0 -1 ------- null}
h -t 0.38 -s 1 -d 6 -p cbr -e 200 -c 1 -i 28 -a 1 -x {1.0 5.0 28 ------- null}
r -t 0.38002112 -s 6 -d 2 -p cbr -e 200 -c 1 -i 26 -a 1 -x {1.0 5.0 26 ------- null}
+ -t 0.38002112 -s 2 -d 4 -p cbr -e 200 -c 1 -i 26 -a 1 -x {1.0 5.0 26 ------- null}
- -t 0.38002112 -s 2 -d 4 -p cbr -e 200 -c 1 -i 26 -a 1 -x {1.0 5.0 26 ------- null}
h -t 0.38002112 -s 2 -d 4 -p cbr -e 200 -c 1 -i 26 -a 1 -x {1.0 5.0 -1 ------- null}
r -t 0.38003712 -s 2 -d 4 -p cbr -e 200 -c 1 -i 25 -a 1 -x {1.0 5.0 25 ------- null}
h -t 0.38003712 -s 4 -d 7 -p cbr -e 200 -c 1 -i 25 -a 1 -x {1.0 5.0 25 ------- null}
+ -t 0.38003712 -s 4 -d 7 -p cbr -e 200 -c 1 -i 24 -a 1 -x {1.0 5.0 24 ------- null}
- -t 0.38003712 -s 4 -d 7 -p cbr -e 200 -c 1 -i 24 -a 1 -x {1.0 5.0 24 ------- null}
h -t 0.38003712 -s 4 -d 7 -p cbr -e 200 -c 1 -i 24 -a 1 -x {1.0 5.0 -1 ------- null}
r -t 0.38005824 -s 7 -d 5 -p cbr -e 200 -c 1 -i 23 -a 1 -x {1.0 5.0 23 ------- null}
+ -t 0.39 -s 1 -d 6 -p cbr -e 200 -c 1 -i 28 -a 1 -x {1.0 5.0 28 ------- null}
- -t 0.39 -s 1 -d 6 -p cbr -e 200 -c 1 -i 28 -a 1 -x {1.0 5.0 28 ------- null}
h -t 0.39 -s 1 -d 6 -p cbr -e 200 -c 1 -i 28 -a 1 -x {1.0 5.0 -1 ------- null}
h -t 0.39 -s 1 -d 6 -p cbr -e 200 -c 1 -i 29 -a 1 -x {1.0 5.0 29 ------- null}
r -t 0.39002112 -s 6 -d 2 -p cbr -e 200 -c 1 -i 27 -a 1 -x {1.0 5.0 27 ------- null}
+ -t 0.39002112 -s 2 -d 4 -p cbr -e 200 -c 1 -i 27 -a 1 -x {1.0 5.0 27 ------- null}
- -t 0.39002112 -s 2 -d 4 -p cbr -e 200 -c 1 -i 27 -a 1 -x {1.0 5.0 27 ------- null}
h -t 0.39002112 -s 2 -d 4 -p cbr -e 200 -c 1 -i 27 -a 1 -x {1.0 5.0 -1 ------- null}
r -t 0.39003712 -s 2 -d 4 -p cbr -e 200 -c 1 -i 26 -a 1 -x {1.0 5.0 26 ------- null}
h -t 0.39003712 -s 4 -d 7 -p cbr -e 200 -c 1 -i 26 -a 1 -x {1.0 5.0 26 ------- null}
+ -t 0.39003712 -s 4 -d 7 -p cbr -e 200 -c 1 -i 25 -a 1 -x {1.0 5.0 25 ------- null}
- -t 0.39003712 -s 4 -d 7 -p cbr -e 200 -c 1 -i 25 -a 1 -x {1.0 5.0 25 ------- null}
h -t 0.39003712 -s 4 -d 7 -p cbr -e 200 -c 1 -i 25 -a 1 -x {1.0 5.0 -1 ------- null}
r -t 0.39005824 -s 7 -d 5 -p cbr -e 200 -c 1 -i 24 -a 1 -x {1.0 5.0 24 ------- null}
+ -t 0.4 -s 1 -d 6 -p cbr -e 200 -c 1 -i 29 -a 1 -x {1.0 5.0 29 ------- null}
- -t 0.4 -s 1 -d 6 -p cbr -e 200 -c 1 -i 29 -a 1 -x {1.0 5.0 29 ------- null}
h -t 0.4 -s 1 -d 6 -p cbr -e 200 -c 1 -i 29 -a 1 -x {1.0 5.0 -1 ------- null}
h -t 0.4 -s 1 -d 6 -p cbr -e 200 -c 1 -i 30 -a 1 -x {1.0 5.0 30 ------- null}
r -t 0.40002112 -s 6 -d 2 -p cbr -e 200 -c 1 -i 28 -a 1 -x {1.0 5.0 28 ------- null}
+ -t 0.40002112 -s 2 -d 4 -p cbr -e 200 -c 1 -i 28 -a 1 -x {1.0 5.0 28 ------- null}
- -t 0.40002112 -s 2 -d 4 -p cbr -e 200 -c 1 -i 28 -a 1 -x {1.0 5.0 28 ------- null}
h -t 0.40002112 -s 2 -d 4 -p cbr -e 200 -c 1 -i 28 -a 1 -x {1.0 5.0 -1 ------- null}
r -t 0.40003712 -s 2 -d 4 -p cbr -e 200 -c 1 -i 27 -a 1 -x {1.0 5.0 27 ------- null}