+ 0.1 0 2 ping 50000 ------- 1 0.0 4.0 -1 0
- 0.1 0 2 ping 50000 ------- 1 0.0 4.0 -1 0
+ 0.1 5 2 ping 50000 ------- 2 5.0 6.0 -1 1
- 0.1 5 2 ping 50000 ------- 2 5.0 6.0 -1 1
+ 0.1 5 2 ping 50000 ------- 2 5.0 6.0 -1 2
- 0.104 5 2 ping 50000 ------- 2 5.0 6.0 -1 2
+ 0.2 0 2 ping 50000 ------- 1 0.0 4.0 -1 3
- 0.2 0 2 ping 50000 ------- 1 0.0 4.0 -1 3
+ 0.2 5 2 ping 50000 ------- 2 5.0 6.0 -1 4
- 0.2 5 2 ping 50000 ------- 2 5.0 6.0 -1 4
+ 0.2 5 2 ping 50000 ------- 2 5.0 6.0 -1 5
- 0.204 5 2 ping 50000 ------- 2 5.0 6.0 -1 5
+ 0.3 0 2 ping 50000 ------- 1 0.0 4.0 -1 6
- 0.3 0 2 ping 50000 ------- 1 0.0 4.0 -1 6
+ 0.3 5 2 ping 50000 ------- 2 5.0 6.0 -1 7
- 0.3 5 2 ping 50000 ------- 2 5.0 6.0 -1 7
+ 0.3 5 2 ping 50000 ------- 2 5.0 6.0 -1 8
- 0.304 5 2 ping 50000 ------- 2 5.0 6.0 -1 8
+ 0.4 0 2 ping 50000 ------- 1 0.0 4.0 -1 9
- 0.4 0 2 ping 50000 ------- 1 0.0 4.0 -1 9
+ 0.4 5 2 ping 50000 ------- 2 5.0 6.0 -1 10
- 0.4 5 2 ping 50000 ------- 2 5.0 6.0 -1 10
+ 0.4 5 2 ping 50000 ------- 2 5.0 6.0 -1 11
r 0.404 0 2 ping 50000 ------- 1 0.0 4.0 -1 0
+ 0.404 2 4 ping 50000 ------- 1 0.0 4.0 -1 0
- 0.404 2 4 ping 50000 ------- 1 0.0 4.0 -1 0
r 0.404 5 2 ping 50000 ------- 2 5.0 6.0 -1 1
+ 0.404 2 6 ping 50000 ------- 2 5.0 6.0 -1 1
- 0.404 2 6 ping 50000 ------- 2 5.0 6.0 -1 1
- 0.404 5 2 ping 50000 ------- 2 5.0 6.0 -1 11
r 0.408 5 2 ping 50000 ------- 2 5.0 6.0 -1 2
+ 0.408 2 6 ping 50000 ------- 2 5.0 6.0 -1 2
+ 0.5 0 2 ping 50000 ------- 1 0.0 4.0 -1 12
- 0.5 0 2 ping 50000 ------- 1 0.0 4.0 -1 12
+ 0.5 5 2 ping 50000 ------- 2 5.0 6.0 -1 13
- 0.5 5 2 ping 50000 ------- 2 5.0 6.0 -1 13
+ 0.5 5 2 ping 50000 ------- 2 5.0 6.0 -1 14
r 0.504 0 2 ping 50000 ------- 1 0.0 4.0 -1 3
+ 0.504 2 4 ping 50000 ------- 1 0.0 4.0 -1 3
r 0.504 5 2 ping 50000 ------- 2 5.0 6.0 -1 4
+ 0.504 2 6 ping 50000 ------- 2 5.0 6.0 -1 4
d 0.504 2 6 ping 50000 ------- 2 5.0 6.0 -1 4
- 0.504 5 2 ping 50000 ------- 2 5.0 6.0 -1 14
r 0.508 5 2 ping 50000 ------- 2 5.0 6.0 -1 5
+ 0.508 2 6 ping 50000 ------- 2 5.0 6.0 -1 5
d 0.508 2 6 ping 50000 ------- 2 5.0 6.0 -1 5
+ 0.6 0 2 ping 50000 ------- 1 0.0 4.0 -1 15
- 0.6 0 2 ping 50000 ------- 1 0.0 4.0 -1 15
+ 0.6 5 2 ping 50000 ------- 2 5.0 6.0 -1 16
- 0.6 5 2 ping 50000 ------- 2 5.0 6.0 -1 16
+ 0.6 5 2 ping 50000 ------- 2 5.0 6.0 -1 17
r 0.604 0 2 ping 50000 ------- 1 0.0 4.0 -1 6
+ 0.604 2 4 ping 50000 ------- 1 0.0 4.0 -1 6
r 0.604 5 2 ping 50000 ------- 2 5.0 6.0 -1 7
+ 0.604 2 6 ping 50000 ------- 2 5.0 6.0 -1 7
d 0.604 2 6 ping 50000 ------- 2 5.0 6.0 -1 7
- 0.604 5 2 ping 50000 ------- 2 5.0 6.0 -1 17
r 0.608 5 2 ping 50000 ------- 2 5.0 6.0 -1 8
+ 0.608 2 6 ping 50000 ------- 2 5.0 6.0 -1 8
d 0.608 2 6 ping 50000 ------- 2 5.0 6.0 -1 8
+ 0.7 0 2 ping 50000 ------- 1 0.0 4.0 -1 18
- 0.7 0 2 ping 50000 ------- 1 0.0 4.0 -1 18
+ 0.7 5 2 ping 50000 ------- 2 5.0 6.0 -1 19
- 0.7 5 2 ping 50000 ------- 2 5.0 6.0 -1 19
+ 0.7 5 2 ping 50000 ------- 2 5.0 6.0 -1 20
r 0.704 0 2 ping 50000 ------- 1 0.0 4.0 -1 9
+ 0.704 2 4 ping 50000 ------- 1 0.0 4.0 -1 9
d 0.704 2 4 ping 50000 ------- 1 0.0 4.0 -1 9
r 0.704 5 2 ping 50000 ------- 2 5.0 6.0 -1 10
+ 0.704 2 6 ping 50000 ------- 2 5.0 6.0 -1 10
d 0.704 2 6 ping 50000 ------- 2 5.0 6.0 -1 10
- 0.704 5 2 ping 50000 ------- 2 5.0 6.0 -1 20
r 0.708 5 2 ping 50000 ------- 2 5.0 6.0 -1 11
+ 0.708 2 6 ping 50000 ------- 2 5.0 6.0 -1 11
d 0.708 2 6 ping 50000 ------- 2 5.0 6.0 -1 11
+ 0.8 0 2 ping 50000 ------- 1 0.0 4.0 -1 21
- 0.8 0 2 ping 50000 ------- 1 0.0 4.0 -1 21
+ 0.8 5 2 ping 50000 ------- 2 5.0 6.0 -1 22
- 0.8 5 2 ping 50000 ------- 2 5.0 6.0 -1 22
+ 0.8 5 2 ping 50000 ------- 2 5.0 6.0 -1 23
- 0.804 2 4 ping 50000 ------- 1 0.0 4.0 -1 3
- 0.804 2 6 ping 50000 ------- 2 5.0 6.0 -1 2
r 0.804 0 2 ping 50000 ------- 1 0.0 4.0 -1 12
+ 0.804 2 4 ping 50000 ------- 1 0.0 4.0 -1 12
r 0.804 5 2 ping 50000 ------- 2 5.0 6.0 -1 13
+ 0.804 2 6 ping 50000 ------- 2 5.0 6.0 -1 13
- 0.804 5 2 ping 50000 ------- 2 5.0 6.0 -1 23
r 0.808 5 2 ping 50000 ------- 2 5.0 6.0 -1 14
+ 0.808 2 6 ping 50000 ------- 2 5.0 6.0 -1 14
d 0.808 2 6 ping 50000 ------- 2 5.0 6.0 -1 14
+ 0.9 0 2 ping 50000 ------- 1 0.0 4.0 -1 24
- 0.9 0 2 ping 50000 ------- 1 0.0 4.0 -1 24
+ 0.9 5 2 ping 50000 ------- 2 5.0 6.0 -1 25
- 0.9 5 2 ping 50000 ------- 2 5.0 6.0 -1 25
+ 0.9 5 2 ping 50000 ------- 2 5.0 6.0 -1 26
r 0.904 0 2 ping 50000 ------- 1 0.0 4.0 -1 15
+ 0.904 2 4 ping 50000 ------- 1 0.0 4.0 -1 15
d 0.904 2 4 ping 50000 ------- 1 0.0 4.0 -1 15
r 0.904 5 2 ping 50000 ------- 2 5.0 6.0 -1 16
+ 0.904 2 6 ping 50000 ------- 2 5.0 6.0 -1 16
d 0.904 2 6 ping 50000 ------- 2 5.0 6.0 -1 16
- 0.904 5 2 ping 50000 ------- 2 5.0 6.0 -1 26
r 0.908 5 2 ping 50000 ------- 2 5.0 6.0 -1 17
+ 0.908 2 6 ping 50000 ------- 2 5.0 6.0 -1 17
d 0.908 2 6 ping 50000 ------- 2 5.0 6.0 -1 17
+ 1 0 2 ping 50000 ------- 1 0.0 4.0 -1 27
- 1 0 2 ping 50000 ------- 1 0.0 4.0 -1 27
+ 1 5 2 ping 50000 ------- 2 5.0 6.0 -1 28
- 1 5 2 ping 50000 ------- 2 5.0 6.0 -1 28
+ 1 5 2 ping 50000 ------- 2 5.0 6.0 -1 29
r 1.004 0 2 ping 50000 ------- 1 0.0 4.0 -1 18
+ 1.004 2 4 ping 50000 ------- 1 0.0 4.0 -1 18
d 1.004 2 4 ping 50000 ------- 1 0.0 4.0 -1 18
r 1.004 5 2 ping 50000 ------- 2 5.0 6.0 -1 19
+ 1.004 2 6 ping 50000 ------- 2 5.0 6.0 -1 19
d 1.004 2 6 ping 50000 ------- 2 5.0 6.0 -1 19
- 1.004 5 2 ping 50000 ------- 2 5.0 6.0 -1 29
r 1.008 5 2 ping 50000 ------- 2 5.0 6.0 -1 20
+ 1.008 2 6 ping 50000 ------- 2 5.0 6.0 -1 20
d 1.008 2 6 ping 50000 ------- 2 5.0 6.0 -1 20
+ 1.1 0 2 ping 50000 ------- 1 0.0 4.0 -1 30
- 1.1 0 2 ping 50000 ------- 1 0.0 4.0 -1 30
+ 1.1 5 2 ping 50000 ------- 2 5.0 6.0 -1 31
- 1.1 5 2 ping 50000 ------- 2 5.0 6.0 -1 31
+ 1.1 5 2 ping 50000 ------- 2 5.0 6.0 -1 32
r 1.104 2 4 ping 50000 ------- 1 0.0 4.0 -1 0
+ 1.104 4 2 ping 64 ------- 0 4.0 0.0 -1 33
- 1.104 4 2 ping 64 ------- 0 4.0 0.0 -1 33
r 1.104 2 6 ping 50000 ------- 2 5.0 6.0 -1 1
+ 1.104 6 2 ping 64 ------- 0 6.0 5.0 -1 34
- 1.104 6 2 ping 64 ------- 0 6.0 5.0 -1 34
r 1.104 0 2 ping 50000 ------- 1 0.0 4.0 -1 21
+ 1.104 2 4 ping 50000 ------- 1 0.0 4.0 -1 21
d 1.104 2 4 ping 50000 ------- 1 0.0 4.0 -1 21
r 1.104 5 2 ping 50000 ------- 2 5.0 6.0 -1 22
+ 1.104 2 6 ping 50000 ------- 2 5.0 6.0 -1 22
d 1.104 2 6 ping 50000 ------- 2 5.0 6.0 -1 22
- 1.104 5 2 ping 50000 ------- 2 5.0 6.0 -1 32
r 1.108 5 2 ping 50000 ------- 2 5.0 6.0 -1 23
+ 1.108 2 6 ping 50000 ------- 2 5.0 6.0 -1 23
d 1.108 2 6 ping 50000 ------- 2 5.0 6.0 -1 23
+ 1.2 0 2 ping 50000 ------- 1 0.0 4.0 -1 35
- 1.2 0 2 ping 50000 ------- 1 0.0 4.0 -1 35
+ 1.2 5 2 ping 50000 ------- 2 5.0 6.0 -1 36
- 1.2 5 2 ping 50000 ------- 2 5.0 6.0 -1 36
+ 1.2 5 2 ping 50000 ------- 2 5.0 6.0 -1 37
r 1.204 0 2 ping 50000 ------- 1 0.0 4.0 -1 24
+ 1.204 2 4 ping 50000 ------- 1 0.0 4.0 -1 24
d 1.204 2 4 ping 50000 ------- 1 0.0 4.0 -1 24
r 1.204 5 2 ping 50000 ------- 2 5.0 6.0 -1 25
+ 1.204 2 6 ping 50000 ------- 2 5.0 6.0 -1 25
d 1.204 2 6 ping 50000 ------- 2 5.0 6.0 -1 25
- 1.204 5 2 ping 50000 ------- 2 5.0 6.0 -1 37
- 1.204 2 4 ping 50000 ------- 1 0.0 4.0 -1 6
- 1.204 2 6 ping 50000 ------- 2 5.0 6.0 -1 13
r 1.208 5 2 ping 50000 ------- 2 5.0 6.0 -1 26
+ 1.208 2 6 ping 50000 ------- 2 5.0 6.0 -1 26
+ 1.3 0 2 ping 50000 ------- 1 0.0 4.0 -1 38
- 1.3 0 2 ping 50000 ------- 1 0.0 4.0 -1 38
+ 1.3 5 2 ping 50000 ------- 2 5.0 6.0 -1 39
- 1.3 5 2 ping 50000 ------- 2 5.0 6.0 -1 39
+ 1.3 5 2 ping 50000 ------- 2 5.0 6.0 -1 40
r 1.304 0 2 ping 50000 ------- 1 0.0 4.0 -1 27
+ 1.304 2 4 ping 50000 ------- 1 0.0 4.0 -1 27
r 1.304 5 2 ping 50000 ------- 2 5.0 6.0 -1 28
+ 1.304 2 6 ping 50000 ------- 2 5.0 6.0 -1 28
d 1.304 2 6 ping 50000 ------- 2 5.0 6.0 -1 28
- 1.304 5 2 ping 50000 ------- 2 5.0 6.0 -1 40
r 1.308 5 2 ping 50000 ------- 2 5.0 6.0 -1 29
+ 1.308 2 6 ping 50000 ------- 2 5.0 6.0 -1 29
d 1.308 2 6 ping 50000 ------- 2 5.0 6.0 -1 29
+ 1.4 0 2 ping 50000 ------- 1 0.0 4.0 -1 41
- 1.4 0 2 ping 50000 ------- 1 0.0 4.0 -1 41
+ 1.4 5 2 ping 50000 ------- 2 5.0 6.0 -1 42
- 1.4 5 2 ping 50000 ------- 2 5.0 6.0 -1 42
+ 1.4 5 2 ping 50000 ------- 2 5.0 6.0 -1 43
- 1.404 5 2 ping 50000 ------- 2 5.0 6.0 -1 43
r 1.404 0 2 ping 50000 ------- 1 0.0 4.0 -1 30
+ 1.404 2 4 ping 50000 ------- 1 0.0 4.0 -1 30
d 1.404 2 4 ping 50000 ------- 1 0.0 4.0 -1 30
r 1.404 5 2 ping 50000 ------- 2 5.0 6.0 -1 31
+ 1.404 2 6 ping 50000 ------- 2 5.0 6.0 -1 31
d 1.404 2 6 ping 50000 ------- 2 5.0 6.0 -1 31
r 1.404512 4 2 ping 64 ------- 0 4.0 0.0 -1 33
+ 1.404512 2 0 ping 64 ------- 0 4.0 0.0 -1 33
- 1.404512 2 0 ping 64 ------- 0 4.0 0.0 -1 33
r 1.404512 6 2 ping 64 ------- 0 6.0 5.0 -1 34
+ 1.404512 2 5 ping 64 ------- 0 6.0 5.0 -1 34
- 1.404512 2 5 ping 64 ------- 0 6.0 5.0 -1 34
r 1.408 5 2 ping 50000 ------- 2 5.0 6.0 -1 32
+ 1.408 2 6 ping 50000 ------- 2 5.0 6.0 -1 32
d 1.408 2 6 ping 50000 ------- 2 5.0 6.0 -1 32
+ 1.5 0 2 ping 50000 ------- 1 0.0 4.0 -1 44
- 1.5 0 2 ping 50000 ------- 1 0.0 4.0 -1 44
+ 1.5 5 2 ping 50000 ------- 2 5.0 6.0 -1 45
- 1.5 5 2 ping 50000 ------- 2 5.0 6.0 -1 45
+ 1.5 5 2 ping 50000 ------- 2 5.0 6.0 -1 46
r 1.504 2 4 ping 50000 ------- 1 0.0 4.0 -1 3
+ 1.504 4 2 ping 64 ------- 0 4.0 0.0 -1 47
- 1.504 4 2 ping 64 ------- 0 4.0 0.0 -1 47
r 1.504 2 6 ping 50000 ------- 2 5.0 6.0 -1 2
+ 1.504 6 2 ping 64 ------- 0 6.0 5.0 -1 48
- 1.504 6 2 ping 64 ------- 0 6.0 5.0 -1 48
r 1.504 0 2 ping 50000 ------- 1 0.0 4.0 -1 35
+ 1.504 2 4 ping 50000 ------- 1 0.0 4.0 -1 35
d 1.504 2 4 ping 50000 ------- 1 0.0 4.0 -1 35
r 1.504 5 2 ping 50000 ------- 2 5.0 6.0 -1 36
+ 1.504 2 6 ping 50000 ------- 2 5.0 6.0 -1 36
d 1.504 2 6 ping 50000 ------- 2 5.0 6.0 -1 36
- 1.504 5 2 ping 50000 ------- 2 5.0 6.0 -1 46
r 1.508 5 2 ping 50000 ------- 2 5.0 6.0 -1 37
+ 1.508 2 6 ping 50000 ------- 2 5.0 6.0 -1 37
d 1.508 2 6 ping 50000 ------- 2 5.0 6.0 -1 37
+ 1.6 0 2 ping 50000 ------- 1 0.0 4.0 -1 49
- 1.6 0 2 ping 50000 ------- 1 0.0 4.0 -1 49
+ 1.6 5 2 ping 50000 ------- 2 5.0 6.0 -1 50
- 1.6 5 2 ping 50000 ------- 2 5.0 6.0 -1 50
+ 1.6 5 2 ping 50000 ------- 2 5.0 6.0 -1 51
- 1.604 2 4 ping 50000 ------- 1 0.0 4.0 -1 12
- 1.604 2 6 ping 50000 ------- 2 5.0 6.0 -1 26
r 1.604 0 2 ping 50000 ------- 1 0.0 4.0 -1 38
+ 1.604 2 4 ping 50000 ------- 1 0.0 4.0 -1 38
r 1.604 5 2 ping 50000 ------- 2 5.0 6.0 -1 39
+ 1.604 2 6 ping 50000 ------- 2 5.0 6.0 -1 39
- 1.604 5 2 ping 50000 ------- 2 5.0 6.0 -1 51
r 1.608 5 2 ping 50000 ------- 2 5.0 6.0 -1 40
+ 1.608 2 6 ping 50000 ------- 2 5.0 6.0 -1 40
d 1.608 2 6 ping 50000 ------- 2 5.0 6.0 -1 40
+ 1.7 0 2 ping 50000 ------- 1 0.0 4.0 -1 52
- 1.7 0 2 ping 50000 ------- 1 0.0 4.0 -1 52
+ 1.7 5 2 ping 50000 ------- 2 5.0 6.0 -1 53
- 1.7 5 2 ping 50000 ------- 2 5.0 6.0 -1 53
+ 1.7 5 2 ping 50000 ------- 2 5.0 6.0 -1 54
r 1.704 0 2 ping 50000 ------- 1 0.0 4.0 -1 41
+ 1.704 2 4 ping 50000 ------- 1 0.0 4.0 -1 41
d 1.704 2 4 ping 50000 ------- 1 0.0 4.0 -1 41
r 1.704 5 2 ping 50000 ------- 2 5.0 6.0 -1 42
+ 1.704 2 6 ping 50000 ------- 2 5.0 6.0 -1 42
d 1.704 2 6 ping 50000 ------- 2 5.0 6.0 -1 42
- 1.704 5 2 ping 50000 ------- 2 5.0 6.0 -1 54
r 1.704517 2 0 ping 64 ------- 0 4.0 0.0 -1 33
r 1.704517 2 5 ping 64 ------- 0 6.0 5.0 -1 34
r 1.708 5 2 ping 50000 ------- 2 5.0 6.0 -1 43
+ 1.708 2 6 ping 50000 ------- 2 5.0 6.0 -1 43
d 1.708 2 6 ping 50000 ------- 2 5.0 6.0 -1 43
+ 1.8 0 2 ping 50000 ------- 1 0.0 4.0 -1 55
- 1.8 0 2 ping 50000 ------- 1 0.0 4.0 -1 55
+ 1.8 5 2 ping 50000 ------- 2 5.0 6.0 -1 56
- 1.8 5 2 ping 50000 ------- 2 5.0 6.0 -1 56
+ 1.8 5 2 ping 50000 ------- 2 5.0 6.0 -1 57
r 1.804 0 2 ping 50000 ------- 1 0.0 4.0 -1 44
+ 1.804 2 4 ping 50000 ------- 1 0.0 4.0 -1 44
d 1.804 2 4 ping 50000 ------- 1 0.0 4.0 -1 44
r 1.804 5 2 ping 50000 ------- 2 5.0 6.0 -1 45
+ 1.804 2 6 ping 50000 ------- 2 5.0 6.0 -1 45
d 1.804 2 6 ping 50000 ------- 2 5.0 6.0 -1 45
- 1.804 5 2 ping 50000 ------- 2 5.0 6.0 -1 57
r 1.804512 4 2 ping 64 ------- 0 4.0 0.0 -1 47
+ 1.804512 2 0 ping 64 ------- 0 4.0 0.0 -1 47
- 1.804512 2 0 ping 64 ------- 0 4.0 0.0 -1 47
r 1.804512 6 2 ping 64 ------- 0 6.0 5.0 -1 48
+ 1.804512 2 5 ping 64 ------- 0 6.0 5.0 -1 48
- 1.804512 2 5 ping 64 ------- 0 6.0 5.0 -1 48
r 1.808 5 2 ping 50000 ------- 2 5.0 6.0 -1 46
+ 1.808 2 6 ping 50000 ------- 2 5.0 6.0 -1 46
d 1.808 2 6 ping 50000 ------- 2 5.0 6.0 -1 46
+ 1.9 0 2 ping 50000 ------- 1 0.0 4.0 -1 58
- 1.9 0 2 ping 50000 ------- 1 0.0 4.0 -1 58
+ 1.9 5 2 ping 50000 ------- 2 5.0 6.0 -1 59
- 1.9 5 2 ping 50000 ------- 2 5.0 6.0 -1 59
+ 1.9 5 2 ping 50000 ------- 2 5.0 6.0 -1 60
- 1.904 5 2 ping 50000 ------- 2 5.0 6.0 -1 60
r 1.904 2 4 ping 50000 ------- 1 0.0 4.0 -1 6
+ 1.904 4 2 ping 64 ------- 0 4.0 0.0 -1 61
- 1.904 4 2 ping 64 ------- 0 4.0 0.0 -1 61
r 1.904 2 6 ping 50000 ------- 2 5.0 6.0 -1 13
+ 1.904 6 2 ping 64 ------- 0 6.0 5.0 -1 62
- 1.904 6 2 ping 64 ------- 0 6.0 5.0 -1 62
r 1.904 0 2 ping 50000 ------- 1 0.0 4.0 -1 49
+ 1.904 2 4 ping 50000 ------- 1 0.0 4.0 -1 49
d 1.904 2 4 ping 50000 ------- 1 0.0 4.0 -1 49
r 1.904 5 2 ping 50000 ------- 2 5.0 6.0 -1 50
+ 1.904 2 6 ping 50000 ------- 2 5.0 6.0 -1 50
d 1.904 2 6 ping 50000 ------- 2 5.0 6.0 -1 50
r 1.908 5 2 ping 50000 ------- 2 5.0 6.0 -1 51
+ 1.908 2 6 ping 50000 ------- 2 5.0 6.0 -1 51
d 1.908 2 6 ping 50000 ------- 2 5.0 6.0 -1 51
- 2.004 2 4 ping 50000 ------- 1 0.0 4.0 -1 27
- 2.004 2 6 ping 50000 ------- 2 5.0 6.0 -1 39
r 2.004 0 2 ping 50000 ------- 1 0.0 4.0 -1 52
+ 2.004 2 4 ping 50000 ------- 1 0.0 4.0 -1 52
r 2.004 5 2 ping 50000 ------- 2 5.0 6.0 -1 53
+ 2.004 2 6 ping 50000 ------- 2 5.0 6.0 -1 53
r 2.008 5 2 ping 50000 ------- 2 5.0 6.0 -1 54
+ 2.008 2 6 ping 50000 ------- 2 5.0 6.0 -1 54
d 2.008 2 6 ping 50000 ------- 2 5.0 6.0 -1 54
r 2.104 0 2 ping 50000 ------- 1 0.0 4.0 -1 55
+ 2.104 2 4 ping 50000 ------- 1 0.0 4.0 -1 55
d 2.104 2 4 ping 50000 ------- 1 0.0 4.0 -1 55
r 2.104 5 2 ping 50000 ------- 2 5.0 6.0 -1 56
+ 2.104 2 6 ping 50000 ------- 2 5.0 6.0 -1 56
d 2.104 2 6 ping 50000 ------- 2 5.0 6.0 -1 56
r 2.104517 2 0 ping 64 ------- 0 4.0 0.0 -1 47
r 2.104517 2 5 ping 64 ------- 0 6.0 5.0 -1 48
r 2.108 5 2 ping 50000 ------- 2 5.0 6.0 -1 57
+ 2.108 2 6 ping 50000 ------- 2 5.0 6.0 -1 57
d 2.108 2 6 ping 50000 ------- 2 5.0 6.0 -1 57
r 2.204 0 2 ping 50000 ------- 1 0.0 4.0 -1 58
+ 2.204 2 4 ping 50000 ------- 1 0.0 4.0 -1 58
d 2.204 2 4 ping 50000 ------- 1 0.0 4.0 -1 58
r 2.204 5 2 ping 50000 ------- 2 5.0 6.0 -1 59
+ 2.204 2 6 ping 50000 ------- 2 5.0 6.0 -1 59
d 2.204 2 6 ping 50000 ------- 2 5.0 6.0 -1 59
r 2.204512 4 2 ping 64 ------- 0 4.0 0.0 -1 61
+ 2.204512 2 0 ping 64 ------- 0 4.0 0.0 -1 61
- 2.204512 2 0 ping 64 ------- 0 4.0 0.0 -1 61
r 2.204512 6 2 ping 64 ------- 0 6.0 5.0 -1 62
+ 2.204512 2 5 ping 64 ------- 0 6.0 5.0 -1 62
- 2.204512 2 5 ping 64 ------- 0 6.0 5.0 -1 62
r 2.208 5 2 ping 50000 ------- 2 5.0 6.0 -1 60
+ 2.208 2 6 ping 50000 ------- 2 5.0 6.0 -1 60
d 2.208 2 6 ping 50000 ------- 2 5.0 6.0 -1 60
r 2.304 2 4 ping 50000 ------- 1 0.0 4.0 -1 12
+ 2.304 4 2 ping 64 ------- 0 4.0 0.0 -1 63
- 2.304 4 2 ping 64 ------- 0 4.0 0.0 -1 63
r 2.304 2 6 ping 50000 ------- 2 5.0 6.0 -1 26
+ 2.304 6 2 ping 64 ------- 0 6.0 5.0 -1 64
- 2.304 6 2 ping 64 ------- 0 6.0 5.0 -1 64
- 2.404 2 4 ping 50000 ------- 1 0.0 4.0 -1 38
- 2.404 2 6 ping 50000 ------- 2 5.0 6.0 -1 53
r 2.504517 2 0 ping 64 ------- 0 4.0 0.0 -1 61
r 2.504517 2 5 ping 64 ------- 0 6.0 5.0 -1 62
r 2.604512 4 2 ping 64 ------- 0 4.0 0.0 -1 63
+ 2.604512 2 0 ping 64 ------- 0 4.0 0.0 -1 63
- 2.604512 2 0 ping 64 ------- 0 4.0 0.0 -1 63
r 2.604512 6 2 ping 64 ------- 0 6.0 5.0 -1 64
+ 2.604512 2 5 ping 64 ------- 0 6.0 5.0 -1 64
- 2.604512 2 5 ping 64 ------- 0 6.0 5.0 -1 64
r 2.704 2 4 ping 50000 ------- 1 0.0 4.0 -1 27
+ 2.704 4 2 ping 64 ------- 0 4.0 0.0 -1 65
- 2.704 4 2 ping 64 ------- 0 4.0 0.0 -1 65
r 2.704 2 6 ping 50000 ------- 2 5.0 6.0 -1 39
+ 2.704 6 2 ping 64 ------- 0 6.0 5.0 -1 66
- 2.704 6 2 ping 64 ------- 0 6.0 5.0 -1 66
- 2.804 2 4 ping 50000 ------- 1 0.0 4.0 -1 52
r 2.904517 2 0 ping 64 ------- 0 4.0 0.0 -1 63
r 2.904517 2 5 ping 64 ------- 0 6.0 5.0 -1 64
r 3.004512 4 2 ping 64 ------- 0 4.0 0.0 -1 65
+ 3.004512 2 0 ping 64 ------- 0 4.0 0.0 -1 65
- 3.004512 2 0 ping 64 ------- 0 4.0 0.0 -1 65
r 3.004512 6 2 ping 64 ------- 0 6.0 5.0 -1 66
+ 3.004512 2 5 ping 64 ------- 0 6.0 5.0 -1 66
- 3.004512 2 5 ping 64 ------- 0 6.0 5.0 -1 66
r 3.104 2 4 ping 50000 ------- 1 0.0 4.0 -1 38
+ 3.104 4 2 ping 64 ------- 0 4.0 0.0 -1 67
- 3.104 4 2 ping 64 ------- 0 4.0 0.0 -1 67
r 3.104 2 6 ping 50000 ------- 2 5.0 6.0 -1 53
+ 3.104 6 2 ping 64 ------- 0 6.0 5.0 -1 68
- 3.104 6 2 ping 64 ------- 0 6.0 5.0 -1 68
r 3.304517 2 0 ping 64 ------- 0 4.0 0.0 -1 65
r 3.304517 2 5 ping 64 ------- 0 6.0 5.0 -1 66
r 3.404512 4 2 ping 64 ------- 0 4.0 0.0 -1 67
+ 3.404512 2 0 ping 64 ------- 0 4.0 0.0 -1 67
- 3.404512 2 0 ping 64 ------- 0 4.0 0.0 -1 67
r 3.404512 6 2 ping 64 ------- 0 6.0 5.0 -1 68
+ 3.404512 2 5 ping 64 ------- 0 6.0 5.0 -1 68
- 3.404512 2 5 ping 64 ------- 0 6.0 5.0 -1 68
r 3.504 2 4 ping 50000 ------- 1 0.0 4.0 -1 52
+ 3.504 4 2 ping 64 ------- 0 4.0 0.0 -1 69
- 3.504 4 2 ping 64 ------- 0 4.0 0.0 -1 69
r 3.704517 2 0 ping 64 ------- 0 4.0 0.0 -1 67
r 3.704517 2 5 ping 64 ------- 0 6.0 5.0 -1 68
r 3.804512 4 2 ping 64 ------- 0 4.0 0.0 -1 69
+ 3.804512 2 0 ping 64 ------- 0 4.0 0.0 -1 69
- 3.804512 2 0 ping 64 ------- 0 4.0 0.0 -1 69
r 4.104517 2 0 ping 64 ------- 0 4.0 0.0 -1 69
