+ 0.1 1 2 cbr 210 ------- 2 1.0 3.1 0 0
- 0.1 1 2 cbr 210 ------- 2 1.0 3.1 0 0
+ 0.11 1 2 cbr 210 ------- 2 1.0 3.1 1 1
- 0.1168 1 2 cbr 210 ------- 2 1.0 3.1 1 1
+ 0.12 1 2 cbr 210 ------- 2 1.0 3.1 2 2
+ 0.13 1 2 cbr 210 ------- 2 1.0 3.1 3 3
- 0.1336 1 2 cbr 210 ------- 2 1.0 3.1 2 2
+ 0.14 1 2 cbr 210 ------- 2 1.0 3.1 4 4
+ 0.15 1 2 cbr 210 ------- 2 1.0 3.1 5 5
- 0.1504 1 2 cbr 210 ------- 2 1.0 3.1 3 3
+ 0.16 1 2 cbr 210 ------- 2 1.0 3.1 6 6
- 0.1672 1 2 cbr 210 ------- 2 1.0 3.1 4 4
+ 0.17 1 2 cbr 210 ------- 2 1.0 3.1 7 7
+ 0.18 1 2 cbr 210 ------- 2 1.0 3.1 8 8
- 0.184 1 2 cbr 210 ------- 2 1.0 3.1 5 5
+ 0.19 1 2 cbr 210 ------- 2 1.0 3.1 9 9
+ 0.2 0 2 tcp 40 ------- 1 0.0 3.0 0 10
- 0.2 0 2 tcp 40 ------- 1 0.0 3.0 0 10
+ 0.2 1 2 cbr 210 ------- 2 1.0 3.1 10 11
- 0.2008 1 2 cbr 210 ------- 2 1.0 3.1 6 6
+ 0.21 1 2 cbr 210 ------- 2 1.0 3.1 11 12
r 0.2168 1 2 cbr 210 ------- 2 1.0 3.1 0 0
+ 0.2168 2 3 cbr 210 ------- 2 1.0 3.1 0 0
- 0.2168 2 3 cbr 210 ------- 2 1.0 3.1 0 0
- 0.2176 1 2 cbr 210 ------- 2 1.0 3.1 7 7
+ 0.22 1 2 cbr 210 ------- 2 1.0 3.1 12 13
+ 0.23 1 2 cbr 210 ------- 2 1.0 3.1 13 14
r 0.2336 1 2 cbr 210 ------- 2 1.0 3.1 1 1
+ 0.2336 2 3 cbr 210 ------- 2 1.0 3.1 1 1
- 0.2336 2 3 cbr 210 ------- 2 1.0 3.1 1 1
- 0.2344 1 2 cbr 210 ------- 2 1.0 3.1 8 8
+ 0.24 1 2 cbr 210 ------- 2 1.0 3.1 14 15
+ 0.25 1 2 cbr 210 ------- 2 1.0 3.1 15 16
r 0.2504 1 2 cbr 210 ------- 2 1.0 3.1 2 2
+ 0.2504 2 3 cbr 210 ------- 2 1.0 3.1 2 2
- 0.2504 2 3 cbr 210 ------- 2 1.0 3.1 2 2
- 0.2512 1 2 cbr 210 ------- 2 1.0 3.1 9 9
+ 0.26 1 2 cbr 210 ------- 2 1.0 3.1 16 17
r 0.2672 1 2 cbr 210 ------- 2 1.0 3.1 3 3
+ 0.2672 2 3 cbr 210 ------- 2 1.0 3.1 3 3
- 0.2672 2 3 cbr 210 ------- 2 1.0 3.1 3 3
- 0.268 1 2 cbr 210 ------- 2 1.0 3.1 10 11
+ 0.27 1 2 cbr 210 ------- 2 1.0 3.1 17 18
+ 0.28 1 2 cbr 210 ------- 2 1.0 3.1 18 19
r 0.284 1 2 cbr 210 ------- 2 1.0 3.1 4 4
+ 0.284 2 3 cbr 210 ------- 2 1.0 3.1 4 4
- 0.284 2 3 cbr 210 ------- 2 1.0 3.1 4 4
- 0.2848 1 2 cbr 210 ------- 2 1.0 3.1 11 12
+ 0.29 1 2 cbr 210 ------- 2 1.0 3.1 19 20
+ 0.3 1 2 cbr 210 ------- 2 1.0 3.1 20 21
r 0.3008 1 2 cbr 210 ------- 2 1.0 3.1 5 5
+ 0.3008 2 3 cbr 210 ------- 2 1.0 3.1 5 5
- 0.3008 2 3 cbr 210 ------- 2 1.0 3.1 5 5
- 0.3016 1 2 cbr 210 ------- 2 1.0 3.1 12 13
r 0.3032 0 2 tcp 40 ------- 1 0.0 3.0 0 10
+ 0.3032 2 3 tcp 40 ------- 1 0.0 3.0 0 10
+ 0.31 1 2 cbr 210 ------- 2 1.0 3.1 21 22
- 0.3176 2 3 tcp 40 ------- 1 0.0 3.0 0 10
r 0.3176 1 2 cbr 210 ------- 2 1.0 3.1 6 6
+ 0.3176 2 3 cbr 210 ------- 2 1.0 3.1 6 6
- 0.3184 1 2 cbr 210 ------- 2 1.0 3.1 13 14
+ 0.32 1 2 cbr 210 ------- 2 1.0 3.1 22 23
- 0.3208 2 3 cbr 210 ------- 2 1.0 3.1 6 6
+ 0.33 1 2 cbr 210 ------- 2 1.0 3.1 23 24
r 0.3336 2 3 cbr 210 ------- 2 1.0 3.1 0 0
r 0.3344 1 2 cbr 210 ------- 2 1.0 3.1 7 7
+ 0.3344 2 3 cbr 210 ------- 2 1.0 3.1 7 7
- 0.3352 1 2 cbr 210 ------- 2 1.0 3.1 14 15
- 0.3376 2 3 cbr 210 ------- 2 1.0 3.1 7 7
+ 0.34 1 2 cbr 210 ------- 2 1.0 3.1 24 25
+ 0.35 1 2 cbr 210 ------- 2 1.0 3.1 25 26
r 0.3504 2 3 cbr 210 ------- 2 1.0 3.1 1 1
r 0.3512 1 2 cbr 210 ------- 2 1.0 3.1 8 8
+ 0.3512 2 3 cbr 210 ------- 2 1.0 3.1 8 8
- 0.352 1 2 cbr 210 ------- 2 1.0 3.1 15 16
- 0.3544 2 3 cbr 210 ------- 2 1.0 3.1 8 8
+ 0.36 1 2 cbr 210 ------- 2 1.0 3.1 26 27
r 0.3672 2 3 cbr 210 ------- 2 1.0 3.1 2 2
r 0.368 1 2 cbr 210 ------- 2 1.0 3.1 9 9
+ 0.368 2 3 cbr 210 ------- 2 1.0 3.1 9 9
- 0.3688 1 2 cbr 210 ------- 2 1.0 3.1 16 17
+ 0.37 1 2 cbr 210 ------- 2 1.0 3.1 27 28
- 0.3712 2 3 cbr 210 ------- 2 1.0 3.1 9 9
+ 0.38 1 2 cbr 210 ------- 2 1.0 3.1 28 29
r 0.384 2 3 cbr 210 ------- 2 1.0 3.1 3 3
r 0.3848 1 2 cbr 210 ------- 2 1.0 3.1 10 11
+ 0.3848 2 3 cbr 210 ------- 2 1.0 3.1 10 11
- 0.3856 1 2 cbr 210 ------- 2 1.0 3.1 17 18
- 0.388 2 3 cbr 210 ------- 2 1.0 3.1 10 11
+ 0.39 1 2 cbr 210 ------- 2 1.0 3.1 29 30
+ 0.4 1 2 cbr 210 ------- 2 1.0 3.1 30 31
r 0.4008 2 3 cbr 210 ------- 2 1.0 3.1 4 4
r 0.4016 1 2 cbr 210 ------- 2 1.0 3.1 11 12
+ 0.4016 2 3 cbr 210 ------- 2 1.0 3.1 11 12
- 0.4024 1 2 cbr 210 ------- 2 1.0 3.1 18 19
- 0.4048 2 3 cbr 210 ------- 2 1.0 3.1 11 12
+ 0.41 1 2 cbr 210 ------- 2 1.0 3.1 31 32
r 0.4176 2 3 cbr 210 ------- 2 1.0 3.1 5 5
r 0.4184 1 2 cbr 210 ------- 2 1.0 3.1 12 13
+ 0.4184 2 3 cbr 210 ------- 2 1.0 3.1 12 13
- 0.4192 1 2 cbr 210 ------- 2 1.0 3.1 19 20
+ 0.42 1 2 cbr 210 ------- 2 1.0 3.1 32 33
r 0.4208 2 3 tcp 40 ------- 1 0.0 3.0 0 10
+ 0.4208 3 2 ack 40 ------- 1 3.0 0.0 0 34
- 0.4208 3 2 ack 40 ------- 1 3.0 0.0 0 34
- 0.4216 2 3 cbr 210 ------- 2 1.0 3.1 12 13
+ 0.43 1 2 cbr 210 ------- 2 1.0 3.1 33 35
r 0.4352 1 2 cbr 210 ------- 2 1.0 3.1 13 14
+ 0.4352 2 3 cbr 210 ------- 2 1.0 3.1 13 14
- 0.436 1 2 cbr 210 ------- 2 1.0 3.1 20 21
r 0.4376 2 3 cbr 210 ------- 2 1.0 3.1 6 6
- 0.4384 2 3 cbr 210 ------- 2 1.0 3.1 13 14
+ 0.44 1 2 cbr 210 ------- 2 1.0 3.1 34 36
+ 0.45 1 2 cbr 210 ------- 2 1.0 3.1 35 37
r 0.452 1 2 cbr 210 ------- 2 1.0 3.1 14 15
+ 0.452 2 3 cbr 210 ------- 2 1.0 3.1 14 15
- 0.4528 1 2 cbr 210 ------- 2 1.0 3.1 21 22
r 0.4544 2 3 cbr 210 ------- 2 1.0 3.1 7 7
- 0.4552 2 3 cbr 210 ------- 2 1.0 3.1 14 15
+ 0.46 1 2 cbr 210 ------- 2 1.0 3.1 36 38
r 0.4688 1 2 cbr 210 ------- 2 1.0 3.1 15 16
+ 0.4688 2 3 cbr 210 ------- 2 1.0 3.1 15 16
- 0.4696 1 2 cbr 210 ------- 2 1.0 3.1 22 23
+ 0.47 1 2 cbr 210 ------- 2 1.0 3.1 37 39
r 0.4712 2 3 cbr 210 ------- 2 1.0 3.1 8 8
- 0.472 2 3 cbr 210 ------- 2 1.0 3.1 15 16
+ 0.48 1 2 cbr 210 ------- 2 1.0 3.1 38 40
r 0.4856 1 2 cbr 210 ------- 2 1.0 3.1 16 17
+ 0.4856 2 3 cbr 210 ------- 2 1.0 3.1 16 17
- 0.4864 1 2 cbr 210 ------- 2 1.0 3.1 23 24
r 0.488 2 3 cbr 210 ------- 2 1.0 3.1 9 9
- 0.4888 2 3 cbr 210 ------- 2 1.0 3.1 16 17
+ 0.49 1 2 cbr 210 ------- 2 1.0 3.1 39 41
+ 0.5 1 2 cbr 210 ------- 2 1.0 3.1 40 42
r 0.5024 1 2 cbr 210 ------- 2 1.0 3.1 17 18
+ 0.5024 2 3 cbr 210 ------- 2 1.0 3.1 17 18
- 0.5032 1 2 cbr 210 ------- 2 1.0 3.1 24 25
r 0.5048 2 3 cbr 210 ------- 2 1.0 3.1 10 11
- 0.5056 2 3 cbr 210 ------- 2 1.0 3.1 17 18
+ 0.51 1 2 cbr 210 ------- 2 1.0 3.1 41 43
r 0.5192 1 2 cbr 210 ------- 2 1.0 3.1 18 19
+ 0.5192 2 3 cbr 210 ------- 2 1.0 3.1 18 19
- 0.52 1 2 cbr 210 ------- 2 1.0 3.1 25 26
+ 0.52 1 2 cbr 210 ------- 2 1.0 3.1 42 44
r 0.5216 2 3 cbr 210 ------- 2 1.0 3.1 11 12
- 0.5224 2 3 cbr 210 ------- 2 1.0 3.1 18 19
r 0.524 3 2 ack 40 ------- 1 3.0 0.0 0 34
+ 0.524 2 0 ack 40 ------- 1 3.0 0.0 0 34
- 0.524 2 0 ack 40 ------- 1 3.0 0.0 0 34
+ 0.53 1 2 cbr 210 ------- 2 1.0 3.1 43 45
r 0.536 1 2 cbr 210 ------- 2 1.0 3.1 19 20
+ 0.536 2 3 cbr 210 ------- 2 1.0 3.1 19 20
- 0.5368 1 2 cbr 210 ------- 2 1.0 3.1 26 27
r 0.5384 2 3 cbr 210 ------- 2 1.0 3.1 12 13
- 0.5392 2 3 cbr 210 ------- 2 1.0 3.1 19 20
+ 0.54 1 2 cbr 210 ------- 2 1.0 3.1 44 46
+ 0.55 1 2 cbr 210 ------- 2 1.0 3.1 45 47
r 0.5528 1 2 cbr 210 ------- 2 1.0 3.1 20 21
+ 0.5528 2 3 cbr 210 ------- 2 1.0 3.1 20 21
- 0.5536 1 2 cbr 210 ------- 2 1.0 3.1 27 28
r 0.5552 2 3 cbr 210 ------- 2 1.0 3.1 13 14
- 0.556 2 3 cbr 210 ------- 2 1.0 3.1 20 21
+ 0.56 1 2 cbr 210 ------- 2 1.0 3.1 46 48
r 0.5696 1 2 cbr 210 ------- 2 1.0 3.1 21 22
+ 0.5696 2 3 cbr 210 ------- 2 1.0 3.1 21 22
+ 0.57 1 2 cbr 210 ------- 2 1.0 3.1 47 49
- 0.5704 1 2 cbr 210 ------- 2 1.0 3.1 28 29
r 0.572 2 3 cbr 210 ------- 2 1.0 3.1 14 15
- 0.5728 2 3 cbr 210 ------- 2 1.0 3.1 21 22
+ 0.58 1 2 cbr 210 ------- 2 1.0 3.1 48 50
r 0.5864 1 2 cbr 210 ------- 2 1.0 3.1 22 23
+ 0.5864 2 3 cbr 210 ------- 2 1.0 3.1 22 23
- 0.5872 1 2 cbr 210 ------- 2 1.0 3.1 29 30
r 0.5888 2 3 cbr 210 ------- 2 1.0 3.1 15 16
- 0.5896 2 3 cbr 210 ------- 2 1.0 3.1 22 23
+ 0.59 1 2 cbr 210 ------- 2 1.0 3.1 49 51
+ 0.6 1 2 cbr 210 ------- 2 1.0 3.1 50 52
r 0.6032 1 2 cbr 210 ------- 2 1.0 3.1 23 24
+ 0.6032 2 3 cbr 210 ------- 2 1.0 3.1 23 24
- 0.604 1 2 cbr 210 ------- 2 1.0 3.1 30 31
r 0.6056 2 3 cbr 210 ------- 2 1.0 3.1 16 17
- 0.6064 2 3 cbr 210 ------- 2 1.0 3.1 23 24
+ 0.61 1 2 cbr 210 ------- 2 1.0 3.1 51 53
r 0.62 1 2 cbr 210 ------- 2 1.0 3.1 24 25
+ 0.62 2 3 cbr 210 ------- 2 1.0 3.1 24 25
+ 0.62 1 2 cbr 210 ------- 2 1.0 3.1 52 54
- 0.6208 1 2 cbr 210 ------- 2 1.0 3.1 31 32
r 0.6224 2 3 cbr 210 ------- 2 1.0 3.1 17 18
- 0.6232 2 3 cbr 210 ------- 2 1.0 3.1 24 25
r 0.6272 2 0 ack 40 ------- 1 3.0 0.0 0 34
+ 0.6272 0 2 tcp 1040 ------- 1 0.0 3.0 1 55
- 0.6272 0 2 tcp 1040 ------- 1 0.0 3.0 1 55
+ 0.6272 0 2 tcp 1040 ------- 1 0.0 3.0 2 56
+ 0.63 1 2 cbr 210 ------- 2 1.0 3.1 53 57
r 0.6368 1 2 cbr 210 ------- 2 1.0 3.1 25 26
+ 0.6368 2 3 cbr 210 ------- 2 1.0 3.1 25 26
- 0.6376 1 2 cbr 210 ------- 2 1.0 3.1 32 33
r 0.6392 2 3 cbr 210 ------- 2 1.0 3.1 18 19
- 0.64 2 3 cbr 210 ------- 2 1.0 3.1 25 26
+ 0.64 1 2 cbr 210 ------- 2 1.0 3.1 54 58
+ 0.65 1 2 cbr 210 ------- 2 1.0 3.1 55 59
r 0.6536 1 2 cbr 210 ------- 2 1.0 3.1 26 27
+ 0.6536 2 3 cbr 210 ------- 2 1.0 3.1 26 27
- 0.6544 1 2 cbr 210 ------- 2 1.0 3.1 33 35
r 0.656 2 3 cbr 210 ------- 2 1.0 3.1 19 20
- 0.6568 2 3 cbr 210 ------- 2 1.0 3.1 26 27
+ 0.66 1 2 cbr 210 ------- 2 1.0 3.1 56 60
+ 0.67 1 2 cbr 210 ------- 2 1.0 3.1 57 61
r 0.6704 1 2 cbr 210 ------- 2 1.0 3.1 27 28
+ 0.6704 2 3 cbr 210 ------- 2 1.0 3.1 27 28
- 0.6712 1 2 cbr 210 ------- 2 1.0 3.1 34 36
r 0.6728 2 3 cbr 210 ------- 2 1.0 3.1 20 21
- 0.6736 2 3 cbr 210 ------- 2 1.0 3.1 27 28
+ 0.68 1 2 cbr 210 ------- 2 1.0 3.1 58 62
r 0.6872 1 2 cbr 210 ------- 2 1.0 3.1 28 29
+ 0.6872 2 3 cbr 210 ------- 2 1.0 3.1 28 29
- 0.688 1 2 cbr 210 ------- 2 1.0 3.1 35 37
r 0.6896 2 3 cbr 210 ------- 2 1.0 3.1 21 22
+ 0.69 1 2 cbr 210 ------- 2 1.0 3.1 59 63
- 0.6904 2 3 cbr 210 ------- 2 1.0 3.1 28 29
+ 0.7 1 2 cbr 210 ------- 2 1.0 3.1 60 64
r 0.704 1 2 cbr 210 ------- 2 1.0 3.1 29 30
+ 0.704 2 3 cbr 210 ------- 2 1.0 3.1 29 30
- 0.7048 1 2 cbr 210 ------- 2 1.0 3.1 36 38
r 0.7064 2 3 cbr 210 ------- 2 1.0 3.1 22 23
- 0.7072 2 3 cbr 210 ------- 2 1.0 3.1 29 30
+ 0.71 1 2 cbr 210 ------- 2 1.0 3.1 61 65
- 0.7104 0 2 tcp 1040 ------- 1 0.0 3.0 2 56
+ 0.72 1 2 cbr 210 ------- 2 1.0 3.1 62 66
r 0.7208 1 2 cbr 210 ------- 2 1.0 3.1 30 31
+ 0.7208 2 3 cbr 210 ------- 2 1.0 3.1 30 31
- 0.7216 1 2 cbr 210 ------- 2 1.0 3.1 37 39
r 0.7232 2 3 cbr 210 ------- 2 1.0 3.1 23 24
- 0.724 2 3 cbr 210 ------- 2 1.0 3.1 30 31
+ 0.73 1 2 cbr 210 ------- 2 1.0 3.1 63 67
r 0.7376 1 2 cbr 210 ------- 2 1.0 3.1 31 32
+ 0.7376 2 3 cbr 210 ------- 2 1.0 3.1 31 32
- 0.7384 1 2 cbr 210 ------- 2 1.0 3.1 38 40
r 0.74 2 3 cbr 210 ------- 2 1.0 3.1 24 25
+ 0.74 1 2 cbr 210 ------- 2 1.0 3.1 64 68
- 0.7408 2 3 cbr 210 ------- 2 1.0 3.1 31 32
+ 0.75 1 2 cbr 210 ------- 2 1.0 3.1 65 69
r 0.7544 1 2 cbr 210 ------- 2 1.0 3.1 32 33
+ 0.7544 2 3 cbr 210 ------- 2 1.0 3.1 32 33
- 0.7552 1 2 cbr 210 ------- 2 1.0 3.1 39 41
r 0.7568 2 3 cbr 210 ------- 2 1.0 3.1 25 26
- 0.7576 2 3 cbr 210 ------- 2 1.0 3.1 32 33
+ 0.76 1 2 cbr 210 ------- 2 1.0 3.1 66 70
+ 0.77 1 2 cbr 210 ------- 2 1.0 3.1 67 71
r 0.7712 1 2 cbr 210 ------- 2 1.0 3.1 33 35
+ 0.7712 2 3 cbr 210 ------- 2 1.0 3.1 33 35
- 0.772 1 2 cbr 210 ------- 2 1.0 3.1 40 42
r 0.7736 2 3 cbr 210 ------- 2 1.0 3.1 26 27
- 0.7744 2 3 cbr 210 ------- 2 1.0 3.1 33 35
+ 0.78 1 2 cbr 210 ------- 2 1.0 3.1 68 72
r 0.788 1 2 cbr 210 ------- 2 1.0 3.1 34 36
+ 0.788 2 3 cbr 210 ------- 2 1.0 3.1 34 36
- 0.7888 1 2 cbr 210 ------- 2 1.0 3.1 41 43
+ 0.79 1 2 cbr 210 ------- 2 1.0 3.1 69 73
r 0.7904 2 3 cbr 210 ------- 2 1.0 3.1 27 28
- 0.7912 2 3 cbr 210 ------- 2 1.0 3.1 34 36
+ 0.8 1 2 cbr 210 ------- 2 1.0 3.1 70 74
r 0.8048 1 2 cbr 210 ------- 2 1.0 3.1 35 37
+ 0.8048 2 3 cbr 210 ------- 2 1.0 3.1 35 37
- 0.8056 1 2 cbr 210 ------- 2 1.0 3.1 42 44
r 0.8072 2 3 cbr 210 ------- 2 1.0 3.1 28 29
- 0.808 2 3 cbr 210 ------- 2 1.0 3.1 35 37
+ 0.81 1 2 cbr 210 ------- 2 1.0 3.1 71 75
r 0.8104 0 2 tcp 1040 ------- 1 0.0 3.0 1 55
+ 0.8104 2 3 tcp 1040 ------- 1 0.0 3.0 1 55
+ 0.82 1 2 cbr 210 ------- 2 1.0 3.1 72 76
r 0.8216 1 2 cbr 210 ------- 2 1.0 3.1 36 38
+ 0.8216 2 3 cbr 210 ------- 2 1.0 3.1 36 38
- 0.8224 1 2 cbr 210 ------- 2 1.0 3.1 43 45
r 0.824 2 3 cbr 210 ------- 2 1.0 3.1 29 30
- 0.8248 2 3 tcp 1040 ------- 1 0.0 3.0 1 55
+ 0.83 1 2 cbr 210 ------- 2 1.0 3.1 73 77
r 0.8384 1 2 cbr 210 ------- 2 1.0 3.1 37 39
+ 0.8384 2 3 cbr 210 ------- 2 1.0 3.1 37 39
- 0.8392 1 2 cbr 210 ------- 2 1.0 3.1 44 46
+ 0.84 1 2 cbr 210 ------- 2 1.0 3.1 74 78
r 0.8408 2 3 cbr 210 ------- 2 1.0 3.1 30 31
+ 0.85 1 2 cbr 210 ------- 2 1.0 3.1 75 79
r 0.8552 1 2 cbr 210 ------- 2 1.0 3.1 38 40
+ 0.8552 2 3 cbr 210 ------- 2 1.0 3.1 38 40
- 0.856 1 2 cbr 210 ------- 2 1.0 3.1 45 47
r 0.8576 2 3 cbr 210 ------- 2 1.0 3.1 31 32
+ 0.86 1 2 cbr 210 ------- 2 1.0 3.1 76 80
+ 0.87 1 2 cbr 210 ------- 2 1.0 3.1 77 81
r 0.872 1 2 cbr 210 ------- 2 1.0 3.1 39 41
+ 0.872 2 3 cbr 210 ------- 2 1.0 3.1 39 41
- 0.8728 1 2 cbr 210 ------- 2 1.0 3.1 46 48
r 0.8744 2 3 cbr 210 ------- 2 1.0 3.1 32 33
+ 0.88 1 2 cbr 210 ------- 2 1.0 3.1 78 82
r 0.8888 1 2 cbr 210 ------- 2 1.0 3.1 40 42
+ 0.8888 2 3 cbr 210 ------- 2 1.0 3.1 40 42
- 0.8896 1 2 cbr 210 ------- 2 1.0 3.1 47 49
+ 0.89 1 2 cbr 210 ------- 2 1.0 3.1 79 83
r 0.8912 2 3 cbr 210 ------- 2 1.0 3.1 33 35
r 0.8936 0 2 tcp 1040 ------- 1 0.0 3.0 2 56
+ 0.8936 2 3 tcp 1040 ------- 1 0.0 3.0 2 56
+ 0.9 1 2 cbr 210 ------- 2 1.0 3.1 80 84
r 0.9056 1 2 cbr 210 ------- 2 1.0 3.1 41 43
+ 0.9056 2 3 cbr 210 ------- 2 1.0 3.1 41 43
- 0.9064 1 2 cbr 210 ------- 2 1.0 3.1 48 50
r 0.908 2 3 cbr 210 ------- 2 1.0 3.1 34 36
- 0.908 2 3 cbr 210 ------- 2 1.0 3.1 36 38
+ 0.91 1 2 cbr 210 ------- 2 1.0 3.1 81 85
+ 0.92 1 2 cbr 210 ------- 2 1.0 3.1 82 86
r 0.9224 1 2 cbr 210 ------- 2 1.0 3.1 42 44
+ 0.9224 2 3 cbr 210 ------- 2 1.0 3.1 42 44
- 0.9232 1 2 cbr 210 ------- 2 1.0 3.1 49 51
r 0.9248 2 3 cbr 210 ------- 2 1.0 3.1 35 37
- 0.9248 2 3 cbr 210 ------- 2 1.0 3.1 37 39
+ 0.93 1 2 cbr 210 ------- 2 1.0 3.1 83 87
r 0.9392 1 2 cbr 210 ------- 2 1.0 3.1 43 45
+ 0.9392 2 3 cbr 210 ------- 2 1.0 3.1 43 45
- 0.94 1 2 cbr 210 ------- 2 1.0 3.1 50 52
+ 0.94 1 2 cbr 210 ------- 2 1.0 3.1 84 88
- 0.9416 2 3 cbr 210 ------- 2 1.0 3.1 38 40
+ 0.95 1 2 cbr 210 ------- 2 1.0 3.1 85 89
r 0.956 1 2 cbr 210 ------- 2 1.0 3.1 44 46
+ 0.956 2 3 cbr 210 ------- 2 1.0 3.1 44 46
- 0.9568 1 2 cbr 210 ------- 2 1.0 3.1 51 53
- 0.9584 2 3 cbr 210 ------- 2 1.0 3.1 39 41
+ 0.96 1 2 cbr 210 ------- 2 1.0 3.1 86 90
+ 0.97 1 2 cbr 210 ------- 2 1.0 3.1 87 91
r 0.9728 1 2 cbr 210 ------- 2 1.0 3.1 45 47
+ 0.9728 2 3 cbr 210 ------- 2 1.0 3.1 45 47
- 0.9736 1 2 cbr 210 ------- 2 1.0 3.1 52 54
- 0.9752 2 3 cbr 210 ------- 2 1.0 3.1 40 42
+ 0.98 1 2 cbr 210 ------- 2 1.0 3.1 88 92
r 0.9896 1 2 cbr 210 ------- 2 1.0 3.1 46 48
+ 0.9896 2 3 cbr 210 ------- 2 1.0 3.1 46 48
+ 0.99 1 2 cbr 210 ------- 2 1.0 3.1 89 93
- 0.9904 1 2 cbr 210 ------- 2 1.0 3.1 53 57
- 0.992 2 3 tcp 1040 ------- 1 0.0 3.0 2 56
+ 1 1 2 cbr 210 ------- 2 1.0 3.1 90 94
r 1.0064 1 2 cbr 210 ------- 2 1.0 3.1 47 49
+ 1.0064 2 3 cbr 210 ------- 2 1.0 3.1 47 49
- 1.0072 1 2 cbr 210 ------- 2 1.0 3.1 54 58
r 1.008 2 3 tcp 1040 ------- 1 0.0 3.0 1 55
+ 1.008 3 2 ack 40 ------- 1 3.0 0.0 1 95
- 1.008 3 2 ack 40 ------- 1 3.0 0.0 1 95
+ 1.01 1 2 cbr 210 ------- 2 1.0 3.1 91 96
+ 1.02 1 2 cbr 210 ------- 2 1.0 3.1 92 97
r 1.0232 1 2 cbr 210 ------- 2 1.0 3.1 48 50
+ 1.0232 2 3 cbr 210 ------- 2 1.0 3.1 48 50
- 1.024 1 2 cbr 210 ------- 2 1.0 3.1 55 59
r 1.0248 2 3 cbr 210 ------- 2 1.0 3.1 36 38
+ 1.03 1 2 cbr 210 ------- 2 1.0 3.1 93 98
r 1.04 1 2 cbr 210 ------- 2 1.0 3.1 49 51
+ 1.04 2 3 cbr 210 ------- 2 1.0 3.1 49 51
+ 1.04 1 2 cbr 210 ------- 2 1.0 3.1 94 99
- 1.0408 1 2 cbr 210 ------- 2 1.0 3.1 56 60
r 1.0416 2 3 cbr 210 ------- 2 1.0 3.1 37 39
+ 1.05 1 2 cbr 210 ------- 2 1.0 3.1 95 100
r 1.0568 1 2 cbr 210 ------- 2 1.0 3.1 50 52
+ 1.0568 2 3 cbr 210 ------- 2 1.0 3.1 50 52
- 1.0576 1 2 cbr 210 ------- 2 1.0 3.1 57 61
r 1.0584 2 3 cbr 210 ------- 2 1.0 3.1 38 40
+ 1.06 1 2 cbr 210 ------- 2 1.0 3.1 96 101
+ 1.07 1 2 cbr 210 ------- 2 1.0 3.1 97 102
r 1.0736 1 2 cbr 210 ------- 2 1.0 3.1 51 53
+ 1.0736 2 3 cbr 210 ------- 2 1.0 3.1 51 53
- 1.0744 1 2 cbr 210 ------- 2 1.0 3.1 58 62
r 1.0752 2 3 cbr 210 ------- 2 1.0 3.1 39 41
- 1.0752 2 3 cbr 210 ------- 2 1.0 3.1 41 43
+ 1.08 1 2 cbr 210 ------- 2 1.0 3.1 98 103
+ 1.09 1 2 cbr 210 ------- 2 1.0 3.1 99 104
r 1.0904 1 2 cbr 210 ------- 2 1.0 3.1 52 54
+ 1.0904 2 3 cbr 210 ------- 2 1.0 3.1 52 54
- 1.0912 1 2 cbr 210 ------- 2 1.0 3.1 59 63
r 1.092 2 3 cbr 210 ------- 2 1.0 3.1 40 42
- 1.092 2 3 cbr 210 ------- 2 1.0 3.1 42 44
+ 1.1 1 2 cbr 210 ------- 2 1.0 3.1 100 105
r 1.1072 1 2 cbr 210 ------- 2 1.0 3.1 53 57
+ 1.1072 2 3 cbr 210 ------- 2 1.0 3.1 53 57
- 1.108 1 2 cbr 210 ------- 2 1.0 3.1 60 64
- 1.1088 2 3 cbr 210 ------- 2 1.0 3.1 43 45
+ 1.11 1 2 cbr 210 ------- 2 1.0 3.1 101 106
r 1.1112 3 2 ack 40 ------- 1 3.0 0.0 1 95
+ 1.1112 2 0 ack 40 ------- 1 3.0 0.0 1 95
- 1.1112 2 0 ack 40 ------- 1 3.0 0.0 1 95
+ 1.12 1 2 cbr 210 ------- 2 1.0 3.1 102 107
r 1.124 1 2 cbr 210 ------- 2 1.0 3.1 54 58
+ 1.124 2 3 cbr 210 ------- 2 1.0 3.1 54 58
- 1.1248 1 2 cbr 210 ------- 2 1.0 3.1 61 65
- 1.1256 2 3 cbr 210 ------- 2 1.0 3.1 44 46
+ 1.13 1 2 cbr 210 ------- 2 1.0 3.1 103 108
+ 1.14 1 2 cbr 210 ------- 2 1.0 3.1 104 109
r 1.1408 1 2 cbr 210 ------- 2 1.0 3.1 55 59
+ 1.1408 2 3 cbr 210 ------- 2 1.0 3.1 55 59
- 1.1416 1 2 cbr 210 ------- 2 1.0 3.1 62 66
- 1.1424 2 3 cbr 210 ------- 2 1.0 3.1 45 47
+ 1.15 1 2 cbr 210 ------- 2 1.0 3.1 105 110
r 1.1576 1 2 cbr 210 ------- 2 1.0 3.1 56 60
+ 1.1576 2 3 cbr 210 ------- 2 1.0 3.1 56 60
- 1.1584 1 2 cbr 210 ------- 2 1.0 3.1 63 67
- 1.1592 2 3 cbr 210 ------- 2 1.0 3.1 46 48
+ 1.16 1 2 cbr 210 ------- 2 1.0 3.1 106 111
+ 1.17 1 2 cbr 210 ------- 2 1.0 3.1 107 112
r 1.1744 1 2 cbr 210 ------- 2 1.0 3.1 57 61
+ 1.1744 2 3 cbr 210 ------- 2 1.0 3.1 57 61
- 1.1752 1 2 cbr 210 ------- 2 1.0 3.1 64 68
r 1.1752 2 3 tcp 1040 ------- 1 0.0 3.0 2 56
+ 1.1752 3 2 ack 40 ------- 1 3.0 0.0 2 113
- 1.1752 3 2 ack 40 ------- 1 3.0 0.0 2 113
- 1.176 2 3 cbr 210 ------- 2 1.0 3.1 47 49
+ 1.18 1 2 cbr 210 ------- 2 1.0 3.1 108 114
+ 1.19 1 2 cbr 210 ------- 2 1.0 3.1 109 115
r 1.1912 1 2 cbr 210 ------- 2 1.0 3.1 58 62
+ 1.1912 2 3 cbr 210 ------- 2 1.0 3.1 58 62
- 1.192 1 2 cbr 210 ------- 2 1.0 3.1 65 69
r 1.192 2 3 cbr 210 ------- 2 1.0 3.1 41 43
- 1.1928 2 3 cbr 210 ------- 2 1.0 3.1 48 50
+ 1.2 1 2 cbr 210 ------- 2 1.0 3.1 110 116
r 1.208 1 2 cbr 210 ------- 2 1.0 3.1 59 63
+ 1.208 2 3 cbr 210 ------- 2 1.0 3.1 59 63
- 1.2088 1 2 cbr 210 ------- 2 1.0 3.1 66 70
r 1.2088 2 3 cbr 210 ------- 2 1.0 3.1 42 44
- 1.2096 2 3 cbr 210 ------- 2 1.0 3.1 49 51
+ 1.21 1 2 cbr 210 ------- 2 1.0 3.1 111 117
r 1.2144 2 0 ack 40 ------- 1 3.0 0.0 1 95
+ 1.2144 0 2 tcp 1040 ------- 1 0.0 3.0 3 118
- 1.2144 0 2 tcp 1040 ------- 1 0.0 3.0 3 118
+ 1.2144 0 2 tcp 1040 ------- 1 0.0 3.0 4 119
+ 1.22 1 2 cbr 210 ------- 2 1.0 3.1 112 120
r 1.2248 1 2 cbr 210 ------- 2 1.0 3.1 60 64
+ 1.2248 2 3 cbr 210 ------- 2 1.0 3.1 60 64
- 1.2256 1 2 cbr 210 ------- 2 1.0 3.1 67 71
r 1.2256 2 3 cbr 210 ------- 2 1.0 3.1 43 45
- 1.2264 2 3 cbr 210 ------- 2 1.0 3.1 50 52
+ 1.23 1 2 cbr 210 ------- 2 1.0 3.1 113 121
+ 1.24 1 2 cbr 210 ------- 2 1.0 3.1 114 122
r 1.2416 1 2 cbr 210 ------- 2 1.0 3.1 61 65
+ 1.2416 2 3 cbr 210 ------- 2 1.0 3.1 61 65
- 1.2424 1 2 cbr 210 ------- 2 1.0 3.1 68 72
r 1.2424 2 3 cbr 210 ------- 2 1.0 3.1 44 46
- 1.2432 2 3 cbr 210 ------- 2 1.0 3.1 51 53
+ 1.25 1 2 cbr 210 ------- 2 1.0 3.1 115 123
r 1.2584 1 2 cbr 210 ------- 2 1.0 3.1 62 66
+ 1.2584 2 3 cbr 210 ------- 2 1.0 3.1 62 66
- 1.2592 1 2 cbr 210 ------- 2 1.0 3.1 69 73
r 1.2592 2 3 cbr 210 ------- 2 1.0 3.1 45 47
- 1.26 2 3 cbr 210 ------- 2 1.0 3.1 52 54
+ 1.26 1 2 cbr 210 ------- 2 1.0 3.1 116 124
+ 1.27 1 2 cbr 210 ------- 2 1.0 3.1 117 125
r 1.2752 1 2 cbr 210 ------- 2 1.0 3.1 63 67
+ 1.2752 2 3 cbr 210 ------- 2 1.0 3.1 63 67
- 1.276 1 2 cbr 210 ------- 2 1.0 3.1 70 74
r 1.276 2 3 cbr 210 ------- 2 1.0 3.1 46 48
- 1.2768 2 3 cbr 210 ------- 2 1.0 3.1 53 57
r 1.2784 3 2 ack 40 ------- 1 3.0 0.0 2 113
+ 1.2784 2 0 ack 40 ------- 1 3.0 0.0 2 113
- 1.2784 2 0 ack 40 ------- 1 3.0 0.0 2 113
+ 1.28 1 2 cbr 210 ------- 2 1.0 3.1 118 126
+ 1.29 1 2 cbr 210 ------- 2 1.0 3.1 119 127
r 1.292 1 2 cbr 210 ------- 2 1.0 3.1 64 68
+ 1.292 2 3 cbr 210 ------- 2 1.0 3.1 64 68
- 1.2928 1 2 cbr 210 ------- 2 1.0 3.1 71 75
r 1.2928 2 3 cbr 210 ------- 2 1.0 3.1 47 49
- 1.2936 2 3 cbr 210 ------- 2 1.0 3.1 54 58
- 1.2976 0 2 tcp 1040 ------- 1 0.0 3.0 4 119
+ 1.3 1 2 cbr 210 ------- 2 1.0 3.1 120 128
r 1.3088 1 2 cbr 210 ------- 2 1.0 3.1 65 69
+ 1.3088 2 3 cbr 210 ------- 2 1.0 3.1 65 69
- 1.3096 1 2 cbr 210 ------- 2 1.0 3.1 72 76
r 1.3096 2 3 cbr 210 ------- 2 1.0 3.1 48 50
+ 1.31 1 2 cbr 210 ------- 2 1.0 3.1 121 129
- 1.3104 2 3 cbr 210 ------- 2 1.0 3.1 55 59
+ 1.32 1 2 cbr 210 ------- 2 1.0 3.1 122 130
d 1.32 1 2 cbr 210 ------- 2 1.0 3.1 122 130
r 1.3256 1 2 cbr 210 ------- 2 1.0 3.1 66 70
+ 1.3256 2 3 cbr 210 ------- 2 1.0 3.1 66 70
- 1.3264 1 2 cbr 210 ------- 2 1.0 3.1 73 77
r 1.3264 2 3 cbr 210 ------- 2 1.0 3.1 49 51
- 1.3272 2 3 cbr 210 ------- 2 1.0 3.1 56 60
+ 1.33 1 2 cbr 210 ------- 2 1.0 3.1 123 131
+ 1.34 1 2 cbr 210 ------- 2 1.0 3.1 124 132
d 1.34 1 2 cbr 210 ------- 2 1.0 3.1 124 132
r 1.3424 1 2 cbr 210 ------- 2 1.0 3.1 67 71
+ 1.3424 2 3 cbr 210 ------- 2 1.0 3.1 67 71
- 1.3432 1 2 cbr 210 ------- 2 1.0 3.1 74 78
r 1.3432 2 3 cbr 210 ------- 2 1.0 3.1 50 52
- 1.344 2 3 cbr 210 ------- 2 1.0 3.1 57 61
+ 1.35 1 2 cbr 210 ------- 2 1.0 3.1 125 133
r 1.3592 1 2 cbr 210 ------- 2 1.0 3.1 68 72
+ 1.3592 2 3 cbr 210 ------- 2 1.0 3.1 68 72
- 1.36 1 2 cbr 210 ------- 2 1.0 3.1 75 79
r 1.36 2 3 cbr 210 ------- 2 1.0 3.1 51 53
+ 1.36 1 2 cbr 210 ------- 2 1.0 3.1 126 134
- 1.3608 2 3 cbr 210 ------- 2 1.0 3.1 58 62
+ 1.37 1 2 cbr 210 ------- 2 1.0 3.1 127 135
d 1.37 1 2 cbr 210 ------- 2 1.0 3.1 127 135
r 1.376 1 2 cbr 210 ------- 2 1.0 3.1 69 73
+ 1.376 2 3 cbr 210 ------- 2 1.0 3.1 69 73
- 1.3768 1 2 cbr 210 ------- 2 1.0 3.1 76 80
r 1.3768 2 3 cbr 210 ------- 2 1.0 3.1 52 54
- 1.3776 2 3 cbr 210 ------- 2 1.0 3.1 59 63
+ 1.38 1 2 cbr 210 ------- 2 1.0 3.1 128 136
r 1.3816 2 0 ack 40 ------- 1 3.0 0.0 2 113
+ 1.3816 0 2 tcp 1040 ------- 1 0.0 3.0 5 137
- 1.3816 0 2 tcp 1040 ------- 1 0.0 3.0 5 137
+ 1.3816 0 2 tcp 1040 ------- 1 0.0 3.0 6 138
+ 1.39 1 2 cbr 210 ------- 2 1.0 3.1 129 139
d 1.39 1 2 cbr 210 ------- 2 1.0 3.1 129 139
r 1.3928 1 2 cbr 210 ------- 2 1.0 3.1 70 74
+ 1.3928 2 3 cbr 210 ------- 2 1.0 3.1 70 74
- 1.3936 1 2 cbr 210 ------- 2 1.0 3.1 77 81
r 1.3936 2 3 cbr 210 ------- 2 1.0 3.1 53 57
- 1.3944 2 3 cbr 210 ------- 2 1.0 3.1 60 64
r 1.3976 0 2 tcp 1040 ------- 1 0.0 3.0 3 118
+ 1.3976 2 3 tcp 1040 ------- 1 0.0 3.0 3 118
+ 1.4 1 2 cbr 210 ------- 2 1.0 3.1 130 140
r 1.4096 1 2 cbr 210 ------- 2 1.0 3.1 71 75
+ 1.4096 2 3 cbr 210 ------- 2 1.0 3.1 71 75
+ 1.41 1 2 cbr 210 ------- 2 1.0 3.1 131 141
d 1.41 1 2 cbr 210 ------- 2 1.0 3.1 131 141
- 1.4104 1 2 cbr 210 ------- 2 1.0 3.1 78 82
r 1.4104 2 3 cbr 210 ------- 2 1.0 3.1 54 58
- 1.4112 2 3 cbr 210 ------- 2 1.0 3.1 61 65
+ 1.42 1 2 cbr 210 ------- 2 1.0 3.1 132 142
r 1.4264 1 2 cbr 210 ------- 2 1.0 3.1 72 76
+ 1.4264 2 3 cbr 210 ------- 2 1.0 3.1 72 76
- 1.4272 1 2 cbr 210 ------- 2 1.0 3.1 79 83
r 1.4272 2 3 cbr 210 ------- 2 1.0 3.1 55 59
- 1.428 2 3 cbr 210 ------- 2 1.0 3.1 62 66
+ 1.43 1 2 cbr 210 ------- 2 1.0 3.1 133 143
+ 1.44 1 2 cbr 210 ------- 2 1.0 3.1 134 144
d 1.44 1 2 cbr 210 ------- 2 1.0 3.1 134 144
r 1.4432 1 2 cbr 210 ------- 2 1.0 3.1 73 77
+ 1.4432 2 3 cbr 210 ------- 2 1.0 3.1 73 77
- 1.444 1 2 cbr 210 ------- 2 1.0 3.1 80 84
r 1.444 2 3 cbr 210 ------- 2 1.0 3.1 56 60
- 1.4448 2 3 cbr 210 ------- 2 1.0 3.1 63 67
+ 1.45 1 2 cbr 210 ------- 2 1.0 3.1 135 145
r 1.46 1 2 cbr 210 ------- 2 1.0 3.1 74 78
+ 1.46 2 3 cbr 210 ------- 2 1.0 3.1 74 78
+ 1.46 1 2 cbr 210 ------- 2 1.0 3.1 136 146
d 1.46 1 2 cbr 210 ------- 2 1.0 3.1 136 146
- 1.4608 1 2 cbr 210 ------- 2 1.0 3.1 81 85
r 1.4608 2 3 cbr 210 ------- 2 1.0 3.1 57 61
- 1.4616 2 3 cbr 210 ------- 2 1.0 3.1 64 68
- 1.4648 0 2 tcp 1040 ------- 1 0.0 3.0 6 138
+ 1.47 1 2 cbr 210 ------- 2 1.0 3.1 137 147
r 1.4768 1 2 cbr 210 ------- 2 1.0 3.1 75 79
+ 1.4768 2 3 cbr 210 ------- 2 1.0 3.1 75 79
- 1.4776 1 2 cbr 210 ------- 2 1.0 3.1 82 86
r 1.4776 2 3 cbr 210 ------- 2 1.0 3.1 58 62
- 1.4784 2 3 cbr 210 ------- 2 1.0 3.1 65 69
+ 1.48 1 2 cbr 210 ------- 2 1.0 3.1 138 148
r 1.4808 0 2 tcp 1040 ------- 1 0.0 3.0 4 119
+ 1.4808 2 3 tcp 1040 ------- 1 0.0 3.0 4 119
+ 1.49 1 2 cbr 210 ------- 2 1.0 3.1 139 149
d 1.49 1 2 cbr 210 ------- 2 1.0 3.1 139 149
r 1.4936 1 2 cbr 210 ------- 2 1.0 3.1 76 80
+ 1.4936 2 3 cbr 210 ------- 2 1.0 3.1 76 80
- 1.4944 1 2 cbr 210 ------- 2 1.0 3.1 83 87
r 1.4944 2 3 cbr 210 ------- 2 1.0 3.1 59 63
- 1.4952 2 3 cbr 210 ------- 2 1.0 3.1 66 70
+ 1.5 1 2 cbr 210 ------- 2 1.0 3.1 140 150
+ 1.51 1 2 cbr 210 ------- 2 1.0 3.1 141 151
d 1.51 1 2 cbr 210 ------- 2 1.0 3.1 141 151
r 1.5104 1 2 cbr 210 ------- 2 1.0 3.1 77 81
+ 1.5104 2 3 cbr 210 ------- 2 1.0 3.1 77 81
- 1.5112 1 2 cbr 210 ------- 2 1.0 3.1 84 88
r 1.5112 2 3 cbr 210 ------- 2 1.0 3.1 60 64
- 1.512 2 3 cbr 210 ------- 2 1.0 3.1 67 71
+ 1.52 1 2 cbr 210 ------- 2 1.0 3.1 142 152
r 1.5272 1 2 cbr 210 ------- 2 1.0 3.1 78 82
+ 1.5272 2 3 cbr 210 ------- 2 1.0 3.1 78 82
- 1.528 1 2 cbr 210 ------- 2 1.0 3.1 85 89
r 1.528 2 3 cbr 210 ------- 2 1.0 3.1 61 65
- 1.5288 2 3 cbr 210 ------- 2 1.0 3.1 68 72
+ 1.53 1 2 cbr 210 ------- 2 1.0 3.1 143 153
+ 1.54 1 2 cbr 210 ------- 2 1.0 3.1 144 154
d 1.54 1 2 cbr 210 ------- 2 1.0 3.1 144 154
r 1.544 1 2 cbr 210 ------- 2 1.0 3.1 79 83
+ 1.544 2 3 cbr 210 ------- 2 1.0 3.1 79 83
- 1.5448 1 2 cbr 210 ------- 2 1.0 3.1 86 90
r 1.5448 2 3 cbr 210 ------- 2 1.0 3.1 62 66
- 1.5456 2 3 cbr 210 ------- 2 1.0 3.1 69 73
+ 1.55 1 2 cbr 210 ------- 2 1.0 3.1 145 155
+ 1.56 1 2 cbr 210 ------- 2 1.0 3.1 146 156
d 1.56 1 2 cbr 210 ------- 2 1.0 3.1 146 156
r 1.5608 1 2 cbr 210 ------- 2 1.0 3.1 80 84
+ 1.5608 2 3 cbr 210 ------- 2 1.0 3.1 80 84
- 1.5616 1 2 cbr 210 ------- 2 1.0 3.1 87 91
r 1.5616 2 3 cbr 210 ------- 2 1.0 3.1 63 67
- 1.5624 2 3 cbr 210 ------- 2 1.0 3.1 70 74
r 1.5648 0 2 tcp 1040 ------- 1 0.0 3.0 5 137
+ 1.5648 2 3 tcp 1040 ------- 1 0.0 3.0 5 137
+ 1.57 1 2 cbr 210 ------- 2 1.0 3.1 147 157
r 1.5776 1 2 cbr 210 ------- 2 1.0 3.1 81 85
+ 1.5776 2 3 cbr 210 ------- 2 1.0 3.1 81 85
- 1.5784 1 2 cbr 210 ------- 2 1.0 3.1 88 92
r 1.5784 2 3 cbr 210 ------- 2 1.0 3.1 64 68
- 1.5792 2 3 tcp 1040 ------- 1 0.0 3.0 3 118
+ 1.58 1 2 cbr 210 ------- 2 1.0 3.1 148 158
+ 1.59 1 2 cbr 210 ------- 2 1.0 3.1 149 159
d 1.59 1 2 cbr 210 ------- 2 1.0 3.1 149 159
r 1.5944 1 2 cbr 210 ------- 2 1.0 3.1 82 86
+ 1.5944 2 3 cbr 210 ------- 2 1.0 3.1 82 86
- 1.5952 1 2 cbr 210 ------- 2 1.0 3.1 89 93
r 1.5952 2 3 cbr 210 ------- 2 1.0 3.1 65 69
+ 1.6 1 2 cbr 210 ------- 2 1.0 3.1 150 160
+ 1.61 1 2 cbr 210 ------- 2 1.0 3.1 151 161
d 1.61 1 2 cbr 210 ------- 2 1.0 3.1 151 161
r 1.6112 1 2 cbr 210 ------- 2 1.0 3.1 83 87
+ 1.6112 2 3 cbr 210 ------- 2 1.0 3.1 83 87
- 1.612 1 2 cbr 210 ------- 2 1.0 3.1 90 94
r 1.612 2 3 cbr 210 ------- 2 1.0 3.1 66 70
+ 1.62 1 2 cbr 210 ------- 2 1.0 3.1 152 162
r 1.628 1 2 cbr 210 ------- 2 1.0 3.1 84 88
+ 1.628 2 3 cbr 210 ------- 2 1.0 3.1 84 88
- 1.6288 1 2 cbr 210 ------- 2 1.0 3.1 91 96
r 1.6288 2 3 cbr 210 ------- 2 1.0 3.1 67 71
+ 1.63 1 2 cbr 210 ------- 2 1.0 3.1 153 163
+ 1.64 1 2 cbr 210 ------- 2 1.0 3.1 154 164
d 1.64 1 2 cbr 210 ------- 2 1.0 3.1 154 164
r 1.6448 1 2 cbr 210 ------- 2 1.0 3.1 85 89
+ 1.6448 2 3 cbr 210 ------- 2 1.0 3.1 85 89
- 1.6456 1 2 cbr 210 ------- 2 1.0 3.1 92 97
r 1.6456 2 3 cbr 210 ------- 2 1.0 3.1 68 72
r 1.648 0 2 tcp 1040 ------- 1 0.0 3.0 6 138
+ 1.648 2 3 tcp 1040 ------- 1 0.0 3.0 6 138
+ 1.65 1 2 cbr 210 ------- 2 1.0 3.1 155 165
+ 1.66 1 2 cbr 210 ------- 2 1.0 3.1 156 166
d 1.66 1 2 cbr 210 ------- 2 1.0 3.1 156 166
r 1.6616 1 2 cbr 210 ------- 2 1.0 3.1 86 90
+ 1.6616 2 3 cbr 210 ------- 2 1.0 3.1 86 90
- 1.6624 1 2 cbr 210 ------- 2 1.0 3.1 93 98
- 1.6624 2 3 cbr 210 ------- 2 1.0 3.1 71 75
r 1.6624 2 3 cbr 210 ------- 2 1.0 3.1 69 73
+ 1.67 1 2 cbr 210 ------- 2 1.0 3.1 157 167
r 1.6784 1 2 cbr 210 ------- 2 1.0 3.1 87 91
+ 1.6784 2 3 cbr 210 ------- 2 1.0 3.1 87 91
- 1.6792 1 2 cbr 210 ------- 2 1.0 3.1 94 99
- 1.6792 2 3 cbr 210 ------- 2 1.0 3.1 72 76
r 1.6792 2 3 cbr 210 ------- 2 1.0 3.1 70 74
+ 1.68 1 2 cbr 210 ------- 2 1.0 3.1 158 168
+ 1.69 1 2 cbr 210 ------- 2 1.0 3.1 159 169
d 1.69 1 2 cbr 210 ------- 2 1.0 3.1 159 169
r 1.6952 1 2 cbr 210 ------- 2 1.0 3.1 88 92
+ 1.6952 2 3 cbr 210 ------- 2 1.0 3.1 88 92
- 1.696 1 2 cbr 210 ------- 2 1.0 3.1 95 100
- 1.696 2 3 cbr 210 ------- 2 1.0 3.1 73 77
+ 1.7 1 2 cbr 210 ------- 2 1.0 3.1 160 170
+ 1.71 1 2 cbr 210 ------- 2 1.0 3.1 161 171
d 1.71 1 2 cbr 210 ------- 2 1.0 3.1 161 171
r 1.712 1 2 cbr 210 ------- 2 1.0 3.1 89 93
+ 1.712 2 3 cbr 210 ------- 2 1.0 3.1 89 93
- 1.7128 1 2 cbr 210 ------- 2 1.0 3.1 96 101
- 1.7128 2 3 cbr 210 ------- 2 1.0 3.1 74 78
+ 1.72 1 2 cbr 210 ------- 2 1.0 3.1 162 172
r 1.7288 1 2 cbr 210 ------- 2 1.0 3.1 90 94
+ 1.7288 2 3 cbr 210 ------- 2 1.0 3.1 90 94
- 1.7296 1 2 cbr 210 ------- 2 1.0 3.1 97 102
- 1.7296 2 3 cbr 210 ------- 2 1.0 3.1 75 79
+ 1.73 1 2 cbr 210 ------- 2 1.0 3.1 163 173
+ 1.74 1 2 cbr 210 ------- 2 1.0 3.1 164 174
d 1.74 1 2 cbr 210 ------- 2 1.0 3.1 164 174
r 1.7456 1 2 cbr 210 ------- 2 1.0 3.1 91 96
+ 1.7456 2 3 cbr 210 ------- 2 1.0 3.1 91 96
- 1.7464 1 2 cbr 210 ------- 2 1.0 3.1 98 103
- 1.7464 2 3 tcp 1040 ------- 1 0.0 3.0 4 119
+ 1.75 1 2 cbr 210 ------- 2 1.0 3.1 165 175
+ 1.76 1 2 cbr 210 ------- 2 1.0 3.1 166 176
d 1.76 1 2 cbr 210 ------- 2 1.0 3.1 166 176
r 1.7624 1 2 cbr 210 ------- 2 1.0 3.1 92 97
+ 1.7624 2 3 cbr 210 ------- 2 1.0 3.1 92 97
r 1.7624 2 3 tcp 1040 ------- 1 0.0 3.0 3 118
+ 1.7624 3 2 ack 40 ------- 1 3.0 0.0 3 177
- 1.7624 3 2 ack 40 ------- 1 3.0 0.0 3 177
- 1.7632 1 2 cbr 210 ------- 2 1.0 3.1 99 104
+ 1.77 1 2 cbr 210 ------- 2 1.0 3.1 167 178