n -t 0 -s 0 -S DLABEL -l "Source/TCP" -L ""
n -t 0 -s 1 -S DLABEL -l "Source/UDP" -L ""
n -t 0 -s 2 -S DLABEL -l "Router" -L ""
n -t 0 -s 3 -S DLABEL -l "Destination" -L ""
l -t 0 -s 0 -d 2 -S DLABEL -l "from 0-2" -L ""
l -t 0 -s 2 -d 0 -S DLABEL -l "from 0-2" -L ""
l -t 0 -s 1 -d 2 -S DLABEL -l "from 1-2" -L ""
l -t 0 -s 2 -d 1 -S DLABEL -l "from 1-2" -L ""
l -t 0 -s 2 -d 3 -S DLABEL -l "from 2-3" -L ""
l -t 0 -s 3 -d 2 -S DLABEL -l "from 2-3" -L ""
V -t * -v 1.0a5 -a 0
A -t * -n 1 -p 0 -o 0x7fffffff -c 30 -a 1
A -t * -h 1 -m 1073741823 -s 0
c -t * -i 1 -n red
c -t * -i 2 -n orange
n -t * -a 0 -s 0 -S UP -v circle -c black -i black
n -t * -a 1 -s 1 -S UP -v circle -c black -i black
n -t * -a 2 -s 2 -S UP -v circle -c black -i black
n -t * -a 3 -s 3 -S UP -v circle -c black -i black
l -t * -s 0 -d 2 -S UP -r 100000 -D 0.10000000000000001 -c green
l -t * -s 1 -d 2 -S UP -r 100000 -D 0.10000000000000001 -c blue
l -t * -s 2 -d 3 -S UP -r 100000 -D 0.10000000000000001 -c black
+ -t 0.1 -s 1 -d 2 -p cbr -e 210 -c 2 -i 0 -a 2 -x {1.0 3.1 0 ------- null}
- -t 0.1 -s 1 -d 2 -p cbr -e 210 -c 2 -i 0 -a 2 -x {1.0 3.1 0 ------- null}
h -t 0.1 -s 1 -d 2 -p cbr -e 210 -c 2 -i 0 -a 2 -x {1.0 3.1 -1 ------- null}
+ -t 0.11 -s 1 -d 2 -p cbr -e 210 -c 2 -i 1 -a 2 -x {1.0 3.1 1 ------- null}
- -t 0.1168 -s 1 -d 2 -p cbr -e 210 -c 2 -i 1 -a 2 -x {1.0 3.1 1 ------- null}
h -t 0.1168 -s 1 -d 2 -p cbr -e 210 -c 2 -i 1 -a 2 -x {1.0 3.1 -1 ------- null}
+ -t 0.12 -s 1 -d 2 -p cbr -e 210 -c 2 -i 2 -a 2 -x {1.0 3.1 2 ------- null}
+ -t 0.13 -s 1 -d 2 -p cbr -e 210 -c 2 -i 3 -a 2 -x {1.0 3.1 3 ------- null}
- -t 0.1336 -s 1 -d 2 -p cbr -e 210 -c 2 -i 2 -a 2 -x {1.0 3.1 2 ------- null}
h -t 0.1336 -s 1 -d 2 -p cbr -e 210 -c 2 -i 2 -a 2 -x {1.0 3.1 -1 ------- null}
+ -t 0.14 -s 1 -d 2 -p cbr -e 210 -c 2 -i 4 -a 2 -x {1.0 3.1 4 ------- null}
+ -t 0.15 -s 1 -d 2 -p cbr -e 210 -c 2 -i 5 -a 2 -x {1.0 3.1 5 ------- null}
- -t 0.1504 -s 1 -d 2 -p cbr -e 210 -c 2 -i 3 -a 2 -x {1.0 3.1 3 ------- null}
h -t 0.1504 -s 1 -d 2 -p cbr -e 210 -c 2 -i 3 -a 2 -x {1.0 3.1 -1 ------- null}
+ -t 0.16 -s 1 -d 2 -p cbr -e 210 -c 2 -i 6 -a 2 -x {1.0 3.1 6 ------- null}
- -t 0.1672 -s 1 -d 2 -p cbr -e 210 -c 2 -i 4 -a 2 -x {1.0 3.1 4 ------- null}
h -t 0.1672 -s 1 -d 2 -p cbr -e 210 -c 2 -i 4 -a 2 -x {1.0 3.1 -1 ------- null}
+ -t 0.17 -s 1 -d 2 -p cbr -e 210 -c 2 -i 7 -a 2 -x {1.0 3.1 7 ------- null}
+ -t 0.18 -s 1 -d 2 -p cbr -e 210 -c 2 -i 8 -a 2 -x {1.0 3.1 8 ------- null}
- -t 0.184 -s 1 -d 2 -p cbr -e 210 -c 2 -i 5 -a 2 -x {1.0 3.1 5 ------- null}
h -t 0.184 -s 1 -d 2 -p cbr -e 210 -c 2 -i 5 -a 2 -x {1.0 3.1 -1 ------- null}
+ -t 0.19 -s 1 -d 2 -p cbr -e 210 -c 2 -i 9 -a 2 -x {1.0 3.1 9 ------- null}
+ -t 0.2 -s 0 -d 2 -p tcp -e 40 -c 1 -i 10 -a 1 -x {0.0 3.0 0 ------- null}
- -t 0.2 -s 0 -d 2 -p tcp -e 40 -c 1 -i 10 -a 1 -x {0.0 3.0 0 ------- null}
h -t 0.2 -s 0 -d 2 -p tcp -e 40 -c 1 -i 10 -a 1 -x {0.0 3.0 -1 ------- null}
+ -t 0.2 -s 1 -d 2 -p cbr -e 210 -c 2 -i 11 -a 2 -x {1.0 3.1 10 ------- null}
- -t 0.2008 -s 1 -d 2 -p cbr -e 210 -c 2 -i 6 -a 2 -x {1.0 3.1 6 ------- null}
h -t 0.2008 -s 1 -d 2 -p cbr -e 210 -c 2 -i 6 -a 2 -x {1.0 3.1 -1 ------- null}
+ -t 0.21 -s 1 -d 2 -p cbr -e 210 -c 2 -i 12 -a 2 -x {1.0 3.1 11 ------- null}
r -t 0.2168 -s 1 -d 2 -p cbr -e 210 -c 2 -i 0 -a 2 -x {1.0 3.1 0 ------- null}
+ -t 0.2168 -s 2 -d 3 -p cbr -e 210 -c 2 -i 0 -a 2 -x {1.0 3.1 0 ------- null}
- -t 0.2168 -s 2 -d 3 -p cbr -e 210 -c 2 -i 0 -a 2 -x {1.0 3.1 0 ------- null}
h -t 0.2168 -s 2 -d 3 -p cbr -e 210 -c 2 -i 0 -a 2 -x {1.0 3.1 -1 ------- null}
- -t 0.2176 -s 1 -d 2 -p cbr -e 210 -c 2 -i 7 -a 2 -x {1.0 3.1 7 ------- null}
h -t 0.2176 -s 1 -d 2 -p cbr -e 210 -c 2 -i 7 -a 2 -x {1.0 3.1 -1 ------- null}
+ -t 0.22 -s 1 -d 2 -p cbr -e 210 -c 2 -i 13 -a 2 -x {1.0 3.1 12 ------- null}
+ -t 0.23 -s 1 -d 2 -p cbr -e 210 -c 2 -i 14 -a 2 -x {1.0 3.1 13 ------- null}
r -t 0.2336 -s 1 -d 2 -p cbr -e 210 -c 2 -i 1 -a 2 -x {1.0 3.1 1 ------- null}
+ -t 0.2336 -s 2 -d 3 -p cbr -e 210 -c 2 -i 1 -a 2 -x {1.0 3.1 1 ------- null}
- -t 0.2336 -s 2 -d 3 -p cbr -e 210 -c 2 -i 1 -a 2 -x {1.0 3.1 1 ------- null}
h -t 0.2336 -s 2 -d 3 -p cbr -e 210 -c 2 -i 1 -a 2 -x {1.0 3.1 -1 ------- null}
- -t 0.2344 -s 1 -d 2 -p cbr -e 210 -c 2 -i 8 -a 2 -x {1.0 3.1 8 ------- null}
h -t 0.2344 -s 1 -d 2 -p cbr -e 210 -c 2 -i 8 -a 2 -x {1.0 3.1 -1 ------- null}
+ -t 0.24 -s 1 -d 2 -p cbr -e 210 -c 2 -i 15 -a 2 -x {1.0 3.1 14 ------- null}
+ -t 0.25 -s 1 -d 2 -p cbr -e 210 -c 2 -i 16 -a 2 -x {1.0 3.1 15 ------- null}
r -t 0.2504 -s 1 -d 2 -p cbr -e 210 -c 2 -i 2 -a 2 -x {1.0 3.1 2 ------- null}
+ -t 0.2504 -s 2 -d 3 -p cbr -e 210 -c 2 -i 2 -a 2 -x {1.0 3.1 2 ------- null}
- -t 0.2504 -s 2 -d 3 -p cbr -e 210 -c 2 -i 2 -a 2 -x {1.0 3.1 2 ------- null}
h -t 0.2504 -s 2 -d 3 -p cbr -e 210 -c 2 -i 2 -a 2 -x {1.0 3.1 -1 ------- null}
- -t 0.2512 -s 1 -d 2 -p cbr -e 210 -c 2 -i 9 -a 2 -x {1.0 3.1 9 ------- null}
h -t 0.2512 -s 1 -d 2 -p cbr -e 210 -c 2 -i 9 -a 2 -x {1.0 3.1 -1 ------- null}
+ -t 0.26 -s 1 -d 2 -p cbr -e 210 -c 2 -i 17 -a 2 -x {1.0 3.1 16 ------- null}
r -t 0.2672 -s 1 -d 2 -p cbr -e 210 -c 2 -i 3 -a 2 -x {1.0 3.1 3 ------- null}
+ -t 0.2672 -s 2 -d 3 -p cbr -e 210 -c 2 -i 3 -a 2 -x {1.0 3.1 3 ------- null}
- -t 0.2672 -s 2 -d 3 -p cbr -e 210 -c 2 -i 3 -a 2 -x {1.0 3.1 3 ------- null}
h -t 0.2672 -s 2 -d 3 -p cbr -e 210 -c 2 -i 3 -a 2 -x {1.0 3.1 -1 ------- null}
- -t 0.268 -s 1 -d 2 -p cbr -e 210 -c 2 -i 11 -a 2 -x {1.0 3.1 10 ------- null}
h -t 0.268 -s 1 -d 2 -p cbr -e 210 -c 2 -i 11 -a 2 -x {1.0 3.1 -1 ------- null}
+ -t 0.27 -s 1 -d 2 -p cbr -e 210 -c 2 -i 18 -a 2 -x {1.0 3.1 17 ------- null}
+ -t 0.28 -s 1 -d 2 -p cbr -e 210 -c 2 -i 19 -a 2 -x {1.0 3.1 18 ------- null}
r -t 0.284 -s 1 -d 2 -p cbr -e 210 -c 2 -i 4 -a 2 -x {1.0 3.1 4 ------- null}
+ -t 0.284 -s 2 -d 3 -p cbr -e 210 -c 2 -i 4 -a 2 -x {1.0 3.1 4 ------- null}
- -t 0.284 -s 2 -d 3 -p cbr -e 210 -c 2 -i 4 -a 2 -x {1.0 3.1 4 ------- null}
h -t 0.284 -s 2 -d 3 -p cbr -e 210 -c 2 -i 4 -a 2 -x {1.0 3.1 -1 ------- null}
- -t 0.2848 -s 1 -d 2 -p cbr -e 210 -c 2 -i 12 -a 2 -x {1.0 3.1 11 ------- null}
h -t 0.2848 -s 1 -d 2 -p cbr -e 210 -c 2 -i 12 -a 2 -x {1.0 3.1 -1 ------- null}
+ -t 0.29 -s 1 -d 2 -p cbr -e 210 -c 2 -i 20 -a 2 -x {1.0 3.1 19 ------- null}
+ -t 0.3 -s 1 -d 2 -p cbr -e 210 -c 2 -i 21 -a 2 -x {1.0 3.1 20 ------- null}
r -t 0.3008 -s 1 -d 2 -p cbr -e 210 -c 2 -i 5 -a 2 -x {1.0 3.1 5 ------- null}
+ -t 0.3008 -s 2 -d 3 -p cbr -e 210 -c 2 -i 5 -a 2 -x {1.0 3.1 5 ------- null}
- -t 0.3008 -s 2 -d 3 -p cbr -e 210 -c 2 -i 5 -a 2 -x {1.0 3.1 5 ------- null}
h -t 0.3008 -s 2 -d 3 -p cbr -e 210 -c 2 -i 5 -a 2 -x {1.0 3.1 -1 ------- null}
- -t 0.3016 -s 1 -d 2 -p cbr -e 210 -c 2 -i 13 -a 2 -x {1.0 3.1 12 ------- null}
h -t 0.3016 -s 1 -d 2 -p cbr -e 210 -c 2 -i 13 -a 2 -x {1.0 3.1 -1 ------- null}
r -t 0.3032 -s 0 -d 2 -p tcp -e 40 -c 1 -i 10 -a 1 -x {0.0 3.0 0 ------- null}
+ -t 0.3032 -s 2 -d 3 -p tcp -e 40 -c 1 -i 10 -a 1 -x {0.0 3.0 0 ------- null}
+ -t 0.31 -s 1 -d 2 -p cbr -e 210 -c 2 -i 22 -a 2 -x {1.0 3.1 21 ------- null}
- -t 0.3176 -s 2 -d 3 -p tcp -e 40 -c 1 -i 10 -a 1 -x {0.0 3.0 0 ------- null}
h -t 0.3176 -s 2 -d 3 -p tcp -e 40 -c 1 -i 10 -a 1 -x {0.0 3.0 -1 ------- null}
r -t 0.3176 -s 1 -d 2 -p cbr -e 210 -c 2 -i 6 -a 2 -x {1.0 3.1 6 ------- null}
+ -t 0.3176 -s 2 -d 3 -p cbr -e 210 -c 2 -i 6 -a 2 -x {1.0 3.1 6 ------- null}
- -t 0.3184 -s 1 -d 2 -p cbr -e 210 -c 2 -i 14 -a 2 -x {1.0 3.1 13 ------- null}
h -t 0.3184 -s 1 -d 2 -p cbr -e 210 -c 2 -i 14 -a 2 -x {1.0 3.1 -1 ------- null}
+ -t 0.32 -s 1 -d 2 -p cbr -e 210 -c 2 -i 23 -a 2 -x {1.0 3.1 22 ------- null}
- -t 0.3208 -s 2 -d 3 -p cbr -e 210 -c 2 -i 6 -a 2 -x {1.0 3.1 6 ------- null}
h -t 0.3208 -s 2 -d 3 -p cbr -e 210 -c 2 -i 6 -a 2 -x {1.0 3.1 -1 ------- null}
+ -t 0.33 -s 1 -d 2 -p cbr -e 210 -c 2 -i 24 -a 2 -x {1.0 3.1 23 ------- null}
r -t 0.3336 -s 2 -d 3 -p cbr -e 210 -c 2 -i 0 -a 2 -x {1.0 3.1 0 ------- null}
r -t 0.3344 -s 1 -d 2 -p cbr -e 210 -c 2 -i 7 -a 2 -x {1.0 3.1 7 ------- null}
+ -t 0.3344 -s 2 -d 3 -p cbr -e 210 -c 2 -i 7 -a 2 -x {1.0 3.1 7 ------- null}
- -t 0.3352 -s 1 -d 2 -p cbr -e 210 -c 2 -i 15 -a 2 -x {1.0 3.1 14 ------- null}
h -t 0.3352 -s 1 -d 2 -p cbr -e 210 -c 2 -i 15 -a 2 -x {1.0 3.1 -1 ------- null}
- -t 0.3376 -s 2 -d 3 -p cbr -e 210 -c 2 -i 7 -a 2 -x {1.0 3.1 7 ------- null}
h -t 0.3376 -s 2 -d 3 -p cbr -e 210 -c 2 -i 7 -a 2 -x {1.0 3.1 -1 ------- null}
+ -t 0.34 -s 1 -d 2 -p cbr -e 210 -c 2 -i 25 -a 2 -x {1.0 3.1 24 ------- null}
+ -t 0.35 -s 1 -d 2 -p cbr -e 210 -c 2 -i 26 -a 2 -x {1.0 3.1 25 ------- null}
r -t 0.3504 -s 2 -d 3 -p cbr -e 210 -c 2 -i 1 -a 2 -x {1.0 3.1 1 ------- null}
r -t 0.3512 -s 1 -d 2 -p cbr -e 210 -c 2 -i 8 -a 2 -x {1.0 3.1 8 ------- null}
+ -t 0.3512 -s 2 -d 3 -p cbr -e 210 -c 2 -i 8 -a 2 -x {1.0 3.1 8 ------- null}
- -t 0.352 -s 1 -d 2 -p cbr -e 210 -c 2 -i 16 -a 2 -x {1.0 3.1 15 ------- null}
h -t 0.352 -s 1 -d 2 -p cbr -e 210 -c 2 -i 16 -a 2 -x {1.0 3.1 -1 ------- null}
- -t 0.3544 -s 2 -d 3 -p cbr -e 210 -c 2 -i 8 -a 2 -x {1.0 3.1 8 ------- null}
h -t 0.3544 -s 2 -d 3 -p cbr -e 210 -c 2 -i 8 -a 2 -x {1.0 3.1 -1 ------- null}
+ -t 0.36 -s 1 -d 2 -p cbr -e 210 -c 2 -i 27 -a 2 -x {1.0 3.1 26 ------- null}
r -t 0.3672 -s 2 -d 3 -p cbr -e 210 -c 2 -i 2 -a 2 -x {1.0 3.1 2 ------- null}
r -t 0.368 -s 1 -d 2 -p cbr -e 210 -c 2 -i 9 -a 2 -x {1.0 3.1 9 ------- null}
+ -t 0.368 -s 2 -d 3 -p cbr -e 210 -c 2 -i 9 -a 2 -x {1.0 3.1 9 ------- null}
- -t 0.3688 -s 1 -d 2 -p cbr -e 210 -c 2 -i 17 -a 2 -x {1.0 3.1 16 ------- null}
h -t 0.3688 -s 1 -d 2 -p cbr -e 210 -c 2 -i 17 -a 2 -x {1.0 3.1 -1 ------- null}
+ -t 0.37 -s 1 -d 2 -p cbr -e 210 -c 2 -i 28 -a 2 -x {1.0 3.1 27 ------- null}
- -t 0.3712 -s 2 -d 3 -p cbr -e 210 -c 2 -i 9 -a 2 -x {1.0 3.1 9 ------- null}
h -t 0.3712 -s 2 -d 3 -p cbr -e 210 -c 2 -i 9 -a 2 -x {1.0 3.1 -1 ------- null}
+ -t 0.38 -s 1 -d 2 -p cbr -e 210 -c 2 -i 29 -a 2 -x {1.0 3.1 28 ------- null}
r -t 0.384 -s 2 -d 3 -p cbr -e 210 -c 2 -i 3 -a 2 -x {1.0 3.1 3 ------- null}
r -t 0.3848 -s 1 -d 2 -p cbr -e 210 -c 2 -i 11 -a 2 -x {1.0 3.1 10 ------- null}
+ -t 0.3848 -s 2 -d 3 -p cbr -e 210 -c 2 -i 11 -a 2 -x {1.0 3.1 10 ------- null}
- -t 0.3856 -s 1 -d 2 -p cbr -e 210 -c 2 -i 18 -a 2 -x {1.0 3.1 17 ------- null}
h -t 0.3856 -s 1 -d 2 -p cbr -e 210 -c 2 -i 18 -a 2 -x {1.0 3.1 -1 ------- null}
- -t 0.388 -s 2 -d 3 -p cbr -e 210 -c 2 -i 11 -a 2 -x {1.0 3.1 10 ------- null}
h -t 0.388 -s 2 -d 3 -p cbr -e 210 -c 2 -i 11 -a 2 -x {1.0 3.1 -1 ------- null}
+ -t 0.39 -s 1 -d 2 -p cbr -e 210 -c 2 -i 30 -a 2 -x {1.0 3.1 29 ------- null}
+ -t 0.4 -s 1 -d 2 -p cbr -e 210 -c 2 -i 31 -a 2 -x {1.0 3.1 30 ------- null}
r -t 0.4008 -s 2 -d 3 -p cbr -e 210 -c 2 -i 4 -a 2 -x {1.0 3.1 4 ------- null}
r -t 0.4016 -s 1 -d 2 -p cbr -e 210 -c 2 -i 12 -a 2 -x {1.0 3.1 11 ------- null}
+ -t 0.4016 -s 2 -d 3 -p cbr -e 210 -c 2 -i 12 -a 2 -x {1.0 3.1 11 ------- null}
- -t 0.4024 -s 1 -d 2 -p cbr -e 210 -c 2 -i 19 -a 2 -x {1.0 3.1 18 ------- null}
h -t 0.4024 -s 1 -d 2 -p cbr -e 210 -c 2 -i 19 -a 2 -x {1.0 3.1 -1 ------- null}
- -t 0.4048 -s 2 -d 3 -p cbr -e 210 -c 2 -i 12 -a 2 -x {1.0 3.1 11 ------- null}
h -t 0.4048 -s 2 -d 3 -p cbr -e 210 -c 2 -i 12 -a 2 -x {1.0 3.1 -1 ------- null}
+ -t 0.41 -s 1 -d 2 -p cbr -e 210 -c 2 -i 32 -a 2 -x {1.0 3.1 31 ------- null}
r -t 0.4176 -s 2 -d 3 -p cbr -e 210 -c 2 -i 5 -a 2 -x {1.0 3.1 5 ------- null}
r -t 0.4184 -s 1 -d 2 -p cbr -e 210 -c 2 -i 13 -a 2 -x {1.0 3.1 12 ------- null}
+ -t 0.4184 -s 2 -d 3 -p cbr -e 210 -c 2 -i 13 -a 2 -x {1.0 3.1 12 ------- null}
- -t 0.4192 -s 1 -d 2 -p cbr -e 210 -c 2 -i 20 -a 2 -x {1.0 3.1 19 ------- null}
h -t 0.4192 -s 1 -d 2 -p cbr -e 210 -c 2 -i 20 -a 2 -x {1.0 3.1 -1 ------- null}
+ -t 0.42 -s 1 -d 2 -p cbr -e 210 -c 2 -i 33 -a 2 -x {1.0 3.1 32 ------- null}
r -t 0.4208 -s 2 -d 3 -p tcp -e 40 -c 1 -i 10 -a 1 -x {0.0 3.0 0 ------- null}
+ -t 0.4208 -s 3 -d 2 -p ack -e 40 -c 1 -i 34 -a 1 -x {3.0 0.0 0 ------- null}
- -t 0.4208 -s 3 -d 2 -p ack -e 40 -c 1 -i 34 -a 1 -x {3.0 0.0 0 ------- null}
h -t 0.4208 -s 3 -d 2 -p ack -e 40 -c 1 -i 34 -a 1 -x {3.0 0.0 -1 ------- null}
- -t 0.4216 -s 2 -d 3 -p cbr -e 210 -c 2 -i 13 -a 2 -x {1.0 3.1 12 ------- null}
h -t 0.4216 -s 2 -d 3 -p cbr -e 210 -c 2 -i 13 -a 2 -x {1.0 3.1 -1 ------- null}
+ -t 0.43 -s 1 -d 2 -p cbr -e 210 -c 2 -i 35 -a 2 -x {1.0 3.1 33 ------- null}
r -t 0.4352 -s 1 -d 2 -p cbr -e 210 -c 2 -i 14 -a 2 -x {1.0 3.1 13 ------- null}
+ -t 0.4352 -s 2 -d 3 -p cbr -e 210 -c 2 -i 14 -a 2 -x {1.0 3.1 13 ------- null}
- -t 0.436 -s 1 -d 2 -p cbr -e 210 -c 2 -i 21 -a 2 -x {1.0 3.1 20 ------- null}
h -t 0.436 -s 1 -d 2 -p cbr -e 210 -c 2 -i 21 -a 2 -x {1.0 3.1 -1 ------- null}
r -t 0.4376 -s 2 -d 3 -p cbr -e 210 -c 2 -i 6 -a 2 -x {1.0 3.1 6 ------- null}
- -t 0.4384 -s 2 -d 3 -p cbr -e 210 -c 2 -i 14 -a 2 -x {1.0 3.1 13 ------- null}
h -t 0.4384 -s 2 -d 3 -p cbr -e 210 -c 2 -i 14 -a 2 -x {1.0 3.1 -1 ------- null}
+ -t 0.44 -s 1 -d 2 -p cbr -e 210 -c 2 -i 36 -a 2 -x {1.0 3.1 34 ------- null}
+ -t 0.45 -s 1 -d 2 -p cbr -e 210 -c 2 -i 37 -a 2 -x {1.0 3.1 35 ------- null}
r -t 0.452 -s 1 -d 2 -p cbr -e 210 -c 2 -i 15 -a 2 -x {1.0 3.1 14 ------- null}
+ -t 0.452 -s 2 -d 3 -p cbr -e 210 -c 2 -i 15 -a 2 -x {1.0 3.1 14 ------- null}
- -t 0.4528 -s 1 -d 2 -p cbr -e 210 -c 2 -i 22 -a 2 -x {1.0 3.1 21 ------- null}
h -t 0.4528 -s 1 -d 2 -p cbr -e 210 -c 2 -i 22 -a 2 -x {1.0 3.1 -1 ------- null}
r -t 0.4544 -s 2 -d 3 -p cbr -e 210 -c 2 -i 7 -a 2 -x {1.0 3.1 7 ------- null}
- -t 0.4552 -s 2 -d 3 -p cbr -e 210 -c 2 -i 15 -a 2 -x {1.0 3.1 14 ------- null}
h -t 0.4552 -s 2 -d 3 -p cbr -e 210 -c 2 -i 15 -a 2 -x {1.0 3.1 -1 ------- null}
+ -t 0.46 -s 1 -d 2 -p cbr -e 210 -c 2 -i 38 -a 2 -x {1.0 3.1 36 ------- null}
r -t 0.4688 -s 1 -d 2 -p cbr -e 210 -c 2 -i 16 -a 2 -x {1.0 3.1 15 ------- null}
+ -t 0.4688 -s 2 -d 3 -p cbr -e 210 -c 2 -i 16 -a 2 -x {1.0 3.1 15 ------- null}
- -t 0.4696 -s 1 -d 2 -p cbr -e 210 -c 2 -i 23 -a 2 -x {1.0 3.1 22 ------- null}
h -t 0.4696 -s 1 -d 2 -p cbr -e 210 -c 2 -i 23 -a 2 -x {1.0 3.1 -1 ------- null}
+ -t 0.47 -s 1 -d 2 -p cbr -e 210 -c 2 -i 39 -a 2 -x {1.0 3.1 37 ------- null}
r -t 0.4712 -s 2 -d 3 -p cbr -e 210 -c 2 -i 8 -a 2 -x {1.0 3.1 8 ------- null}
- -t 0.472 -s 2 -d 3 -p cbr -e 210 -c 2 -i 16 -a 2 -x {1.0 3.1 15 ------- null}
h -t 0.472 -s 2 -d 3 -p cbr -e 210 -c 2 -i 16 -a 2 -x {1.0 3.1 -1 ------- null}
+ -t 0.48 -s 1 -d 2 -p cbr -e 210 -c 2 -i 40 -a 2 -x {1.0 3.1 38 ------- null}
r -t 0.4856 -s 1 -d 2 -p cbr -e 210 -c 2 -i 17 -a 2 -x {1.0 3.1 16 ------- null}
+ -t 0.4856 -s 2 -d 3 -p cbr -e 210 -c 2 -i 17 -a 2 -x {1.0 3.1 16 ------- null}
- -t 0.4864 -s 1 -d 2 -p cbr -e 210 -c 2 -i 24 -a 2 -x {1.0 3.1 23 ------- null}
h -t 0.4864 -s 1 -d 2 -p cbr -e 210 -c 2 -i 24 -a 2 -x {1.0 3.1 -1 ------- null}
r -t 0.488 -s 2 -d 3 -p cbr -e 210 -c 2 -i 9 -a 2 -x {1.0 3.1 9 ------- null}
- -t 0.4888 -s 2 -d 3 -p cbr -e 210 -c 2 -i 17 -a 2 -x {1.0 3.1 16 ------- null}
h -t 0.4888 -s 2 -d 3 -p cbr -e 210 -c 2 -i 17 -a 2 -x {1.0 3.1 -1 ------- null}
+ -t 0.49 -s 1 -d 2 -p cbr -e 210 -c 2 -i 41 -a 2 -x {1.0 3.1 39 ------- null}
+ -t 0.5 -s 1 -d 2 -p cbr -e 210 -c 2 -i 42 -a 2 -x {1.0 3.1 40 ------- null}
r -t 0.5024 -s 1 -d 2 -p cbr -e 210 -c 2 -i 18 -a 2 -x {1.0 3.1 17 ------- null}
+ -t 0.5024 -s 2 -d 3 -p cbr -e 210 -c 2 -i 18 -a 2 -x {1.0 3.1 17 ------- null}
- -t 0.5032 -s 1 -d 2 -p cbr -e 210 -c 2 -i 25 -a 2 -x {1.0 3.1 24 ------- null}
h -t 0.5032 -s 1 -d 2 -p cbr -e 210 -c 2 -i 25 -a 2 -x {1.0 3.1 -1 ------- null}
r -t 0.5048 -s 2 -d 3 -p cbr -e 210 -c 2 -i 11 -a 2 -x {1.0 3.1 10 ------- null}
- -t 0.5056 -s 2 -d 3 -p cbr -e 210 -c 2 -i 18 -a 2 -x {1.0 3.1 17 ------- null}
h -t 0.5056 -s 2 -d 3 -p cbr -e 210 -c 2 -i 18 -a 2 -x {1.0 3.1 -1 ------- null}
+ -t 0.51 -s 1 -d 2 -p cbr -e 210 -c 2 -i 43 -a 2 -x {1.0 3.1 41 ------- null}
r -t 0.5192 -s 1 -d 2 -p cbr -e 210 -c 2 -i 19 -a 2 -x {1.0 3.1 18 ------- null}
+ -t 0.5192 -s 2 -d 3 -p cbr -e 210 -c 2 -i 19 -a 2 -x {1.0 3.1 18 ------- null}
- -t 0.52 -s 1 -d 2 -p cbr -e 210 -c 2 -i 26 -a 2 -x {1.0 3.1 25 ------- null}
h -t 0.52 -s 1 -d 2 -p cbr -e 210 -c 2 -i 26 -a 2 -x {1.0 3.1 -1 ------- null}
+ -t 0.52 -s 1 -d 2 -p cbr -e 210 -c 2 -i 44 -a 2 -x {1.0 3.1 42 ------- null}
r -t 0.5216 -s 2 -d 3 -p cbr -e 210 -c 2 -i 12 -a 2 -x {1.0 3.1 11 ------- null}
- -t 0.5224 -s 2 -d 3 -p cbr -e 210 -c 2 -i 19 -a 2 -x {1.0 3.1 18 ------- null}
h -t 0.5224 -s 2 -d 3 -p cbr -e 210 -c 2 -i 19 -a 2 -x {1.0 3.1 -1 ------- null}
r -t 0.524 -s 3 -d 2 -p ack -e 40 -c 1 -i 34 -a 1 -x {3.0 0.0 0 ------- null}
+ -t 0.524 -s 2 -d 0 -p ack -e 40 -c 1 -i 34 -a 1 -x {3.0 0.0 0 ------- null}
- -t 0.524 -s 2 -d 0 -p ack -e 40 -c 1 -i 34 -a 1 -x {3.0 0.0 0 ------- null}
h -t 0.524 -s 2 -d 0 -p ack -e 40 -c 1 -i 34 -a 1 -x {3.0 0.0 -1 ------- null}
+ -t 0.53 -s 1 -d 2 -p cbr -e 210 -c 2 -i 45 -a 2 -x {1.0 3.1 43 ------- null}
r -t 0.536 -s 1 -d 2 -p cbr -e 210 -c 2 -i 20 -a 2 -x {1.0 3.1 19 ------- null}
+ -t 0.536 -s 2 -d 3 -p cbr -e 210 -c 2 -i 20 -a 2 -x {1.0 3.1 19 ------- null}
- -t 0.5368 -s 1 -d 2 -p cbr -e 210 -c 2 -i 27 -a 2 -x {1.0 3.1 26 ------- null}
h -t 0.5368 -s 1 -d 2 -p cbr -e 210 -c 2 -i 27 -a 2 -x {1.0 3.1 -1 ------- null}
r -t 0.5384 -s 2 -d 3 -p cbr -e 210 -c 2 -i 13 -a 2 -x {1.0 3.1 12 ------- null}
- -t 0.5392 -s 2 -d 3 -p cbr -e 210 -c 2 -i 20 -a 2 -x {1.0 3.1 19 ------- null}
h -t 0.5392 -s 2 -d 3 -p cbr -e 210 -c 2 -i 20 -a 2 -x {1.0 3.1 -1 ------- null}
+ -t 0.54 -s 1 -d 2 -p cbr -e 210 -c 2 -i 46 -a 2 -x {1.0 3.1 44 ------- null}
+ -t 0.55 -s 1 -d 2 -p cbr -e 210 -c 2 -i 47 -a 2 -x {1.0 3.1 45 ------- null}
r -t 0.5528 -s 1 -d 2 -p cbr -e 210 -c 2 -i 21 -a 2 -x {1.0 3.1 20 ------- null}
+ -t 0.5528 -s 2 -d 3 -p cbr -e 210 -c 2 -i 21 -a 2 -x {1.0 3.1 20 ------- null}
- -t 0.5536 -s 1 -d 2 -p cbr -e 210 -c 2 -i 28 -a 2 -x {1.0 3.1 27 ------- null}
h -t 0.5536 -s 1 -d 2 -p cbr -e 210 -c 2 -i 28 -a 2 -x {1.0 3.1 -1 ------- null}
r -t 0.5552 -s 2 -d 3 -p cbr -e 210 -c 2 -i 14 -a 2 -x {1.0 3.1 13 ------- null}
- -t 0.556 -s 2 -d 3 -p cbr -e 210 -c 2 -i 21 -a 2 -x {1.0 3.1 20 ------- null}
h -t 0.556 -s 2 -d 3 -p cbr -e 210 -c 2 -i 21 -a 2 -x {1.0 3.1 -1 ------- null}
+ -t 0.56 -s 1 -d 2 -p cbr -e 210 -c 2 -i 48 -a 2 -x {1.0 3.1 46 ------- null}
r -t 0.5696 -s 1 -d 2 -p cbr -e 210 -c 2 -i 22 -a 2 -x {1.0 3.1 21 ------- null}
+ -t 0.5696 -s 2 -d 3 -p cbr -e 210 -c 2 -i 22 -a 2 -x {1.0 3.1 21 ------- null}
+ -t 0.57 -s 1 -d 2 -p cbr -e 210 -c 2 -i 49 -a 2 -x {1.0 3.1 47 ------- null}
- -t 0.5704 -s 1 -d 2 -p cbr -e 210 -c 2 -i 29 -a 2 -x {1.0 3.1 28 ------- null}
h -t 0.5704 -s 1 -d 2 -p cbr -e 210 -c 2 -i 29 -a 2 -x {1.0 3.1 -1 ------- null}
r -t 0.572 -s 2 -d 3 -p cbr -e 210 -c 2 -i 15 -a 2 -x {1.0 3.1 14 ------- null}
- -t 0.5728 -s 2 -d 3 -p cbr -e 210 -c 2 -i 22 -a 2 -x {1.0 3.1 21 ------- null}
h -t 0.5728 -s 2 -d 3 -p cbr -e 210 -c 2 -i 22 -a 2 -x {1.0 3.1 -1 ------- null}
+ -t 0.58 -s 1 -d 2 -p cbr -e 210 -c 2 -i 50 -a 2 -x {1.0 3.1 48 ------- null}
r -t 0.5864 -s 1 -d 2 -p cbr -e 210 -c 2 -i 23 -a 2 -x {1.0 3.1 22 ------- null}
+ -t 0.5864 -s 2 -d 3 -p cbr -e 210 -c 2 -i 23 -a 2 -x {1.0 3.1 22 ------- null}
- -t 0.5872 -s 1 -d 2 -p cbr -e 210 -c 2 -i 30 -a 2 -x {1.0 3.1 29 ------- null}
h -t 0.5872 -s 1 -d 2 -p cbr -e 210 -c 2 -i 30 -a 2 -x {1.0 3.1 -1 ------- null}
r -t 0.5888 -s 2 -d 3 -p cbr -e 210 -c 2 -i 16 -a 2 -x {1.0 3.1 15 ------- null}
- -t 0.5896 -s 2 -d 3 -p cbr -e 210 -c 2 -i 23 -a 2 -x {1.0 3.1 22 ------- null}
h -t 0.5896 -s 2 -d 3 -p cbr -e 210 -c 2 -i 23 -a 2 -x {1.0 3.1 -1 ------- null}
+ -t 0.59 -s 1 -d 2 -p cbr -e 210 -c 2 -i 51 -a 2 -x {1.0 3.1 49 ------- null}
+ -t 0.6 -s 1 -d 2 -p cbr -e 210 -c 2 -i 52 -a 2 -x {1.0 3.1 50 ------- null}
r -t 0.6032 -s 1 -d 2 -p cbr -e 210 -c 2 -i 24 -a 2 -x {1.0 3.1 23 ------- null}
+ -t 0.6032 -s 2 -d 3 -p cbr -e 210 -c 2 -i 24 -a 2 -x {1.0 3.1 23 ------- null}
- -t 0.604 -s 1 -d 2 -p cbr -e 210 -c 2 -i 31 -a 2 -x {1.0 3.1 30 ------- null}
h -t 0.604 -s 1 -d 2 -p cbr -e 210 -c 2 -i 31 -a 2 -x {1.0 3.1 -1 ------- null}
r -t 0.6056 -s 2 -d 3 -p cbr -e 210 -c 2 -i 17 -a 2 -x {1.0 3.1 16 ------- null}
- -t 0.6064 -s 2 -d 3 -p cbr -e 210 -c 2 -i 24 -a 2 -x {1.0 3.1 23 ------- null}
h -t 0.6064 -s 2 -d 3 -p cbr -e 210 -c 2 -i 24 -a 2 -x {1.0 3.1 -1 ------- null}
+ -t 0.61 -s 1 -d 2 -p cbr -e 210 -c 2 -i 53 -a 2 -x {1.0 3.1 51 ------- null}
r -t 0.62 -s 1 -d 2 -p cbr -e 210 -c 2 -i 25 -a 2 -x {1.0 3.1 24 ------- null}
+ -t 0.62 -s 2 -d 3 -p cbr -e 210 -c 2 -i 25 -a 2 -x {1.0 3.1 24 ------- null}
+ -t 0.62 -s 1 -d 2 -p cbr -e 210 -c 2 -i 54 -a 2 -x {1.0 3.1 52 ------- null}
- -t 0.6208 -s 1 -d 2 -p cbr -e 210 -c 2 -i 32 -a 2 -x {1.0 3.1 31 ------- null}
h -t 0.6208 -s 1 -d 2 -p cbr -e 210 -c 2 -i 32 -a 2 -x {1.0 3.1 -1 ------- null}
r -t 0.6224 -s 2 -d 3 -p cbr -e 210 -c 2 -i 18 -a 2 -x {1.0 3.1 17 ------- null}
- -t 0.6232 -s 2 -d 3 -p cbr -e 210 -c 2 -i 25 -a 2 -x {1.0 3.1 24 ------- null}
h -t 0.6232 -s 2 -d 3 -p cbr -e 210 -c 2 -i 25 -a 2 -x {1.0 3.1 -1 ------- null}
r -t 0.6272 -s 2 -d 0 -p ack -e 40 -c 1 -i 34 -a 1 -x {3.0 0.0 0 ------- null}
+ -t 0.6272 -s 0 -d 2 -p tcp -e 1040 -c 1 -i 55 -a 1 -x {0.0 3.0 1 ------- null}
- -t 0.6272 -s 0 -d 2 -p tcp -e 1040 -c 1 -i 55 -a 1 -x {0.0 3.0 1 ------- null}
h -t 0.6272 -s 0 -d 2 -p tcp -e 1040 -c 1 -i 55 -a 1 -x {0.0 3.0 -1 ------- null}
+ -t 0.6272 -s 0 -d 2 -p tcp -e 1040 -c 1 -i 56 -a 1 -x {0.0 3.0 2 ------- null}
+ -t 0.63 -s 1 -d 2 -p cbr -e 210 -c 2 -i 57 -a 2 -x {1.0 3.1 53 ------- null}
r -t 0.6368 -s 1 -d 2 -p cbr -e 210 -c 2 -i 26 -a 2 -x {1.0 3.1 25 ------- null}
+ -t 0.6368 -s 2 -d 3 -p cbr -e 210 -c 2 -i 26 -a 2 -x {1.0 3.1 25 ------- null}
- -t 0.6376 -s 1 -d 2 -p cbr -e 210 -c 2 -i 33 -a 2 -x {1.0 3.1 32 ------- null}
h -t 0.6376 -s 1 -d 2 -p cbr -e 210 -c 2 -i 33 -a 2 -x {1.0 3.1 -1 ------- null}
r -t 0.6392 -s 2 -d 3 -p cbr -e 210 -c 2 -i 19 -a 2 -x {1.0 3.1 18 ------- null}
- -t 0.64 -s 2 -d 3 -p cbr -e 210 -c 2 -i 26 -a 2 -x {1.0 3.1 25 ------- null}
h -t 0.64 -s 2 -d 3 -p cbr -e 210 -c 2 -i 26 -a 2 -x {1.0 3.1 -1 ------- null}
+ -t 0.64 -s 1 -d 2 -p cbr -e 210 -c 2 -i 58 -a 2 -x {1.0 3.1 54 ------- null}
+ -t 0.65 -s 1 -d 2 -p cbr -e 210 -c 2 -i 59 -a 2 -x {1.0 3.1 55 ------- null}
r -t 0.6536 -s 1 -d 2 -p cbr -e 210 -c 2 -i 27 -a 2 -x {1.0 3.1 26 ------- null}
+ -t 0.6536 -s 2 -d 3 -p cbr -e 210 -c 2 -i 27 -a 2 -x {1.0 3.1 26 ------- null}
- -t 0.6544 -s 1 -d 2 -p cbr -e 210 -c 2 -i 35 -a 2 -x {1.0 3.1 33 ------- null}
h -t 0.6544 -s 1 -d 2 -p cbr -e 210 -c 2 -i 35 -a 2 -x {1.0 3.1 -1 ------- null}
r -t 0.656 -s 2 -d 3 -p cbr -e 210 -c 2 -i 20 -a 2 -x {1.0 3.1 19 ------- null}
- -t 0.6568 -s 2 -d 3 -p cbr -e 210 -c 2 -i 27 -a 2 -x {1.0 3.1 26 ------- null}
h -t 0.6568 -s 2 -d 3 -p cbr -e 210 -c 2 -i 27 -a 2 -x {1.0 3.1 -1 ------- null}
+ -t 0.66 -s 1 -d 2 -p cbr -e 210 -c 2 -i 60 -a 2 -x {1.0 3.1 56 ------- null}
+ -t 0.67 -s 1 -d 2 -p cbr -e 210 -c 2 -i 61 -a 2 -x {1.0 3.1 57 ------- null}
r -t 0.6704 -s 1 -d 2 -p cbr -e 210 -c 2 -i 28 -a 2 -x {1.0 3.1 27 ------- null}
+ -t 0.6704 -s 2 -d 3 -p cbr -e 210 -c 2 -i 28 -a 2 -x {1.0 3.1 27 ------- null}
- -t 0.6712 -s 1 -d 2 -p cbr -e 210 -c 2 -i 36 -a 2 -x {1.0 3.1 34 ------- null}
h -t 0.6712 -s 1 -d 2 -p cbr -e 210 -c 2 -i 36 -a 2 -x {1.0 3.1 -1 ------- null}
r -t 0.6728 -s 2 -d 3 -p cbr -e 210 -c 2 -i 21 -a 2 -x {1.0 3.1 20 ------- null}
- -t 0.6736 -s 2 -d 3 -p cbr -e 210 -c 2 -i 28 -a 2 -x {1.0 3.1 27 ------- null}
h -t 0.6736 -s 2 -d 3 -p cbr -e 210 -c 2 -i 28 -a 2 -x {1.0 3.1 -1 ------- null}
+ -t 0.68 -s 1 -d 2 -p cbr -e 210 -c 2 -i 62 -a 2 -x {1.0 3.1 58 ------- null}
r -t 0.6872 -s 1 -d 2 -p cbr -e 210 -c 2 -i 29 -a 2 -x {1.0 3.1 28 ------- null}
+ -t 0.6872 -s 2 -d 3 -p cbr -e 210 -c 2 -i 29 -a 2 -x {1.0 3.1 28 ------- null}
- -t 0.688 -s 1 -d 2 -p cbr -e 210 -c 2 -i 37 -a 2 -x {1.0 3.1 35 ------- null}
h -t 0.688 -s 1 -d 2 -p cbr -e 210 -c 2 -i 37 -a 2 -x {1.0 3.1 -1 ------- null}
r -t 0.6896 -s 2 -d 3 -p cbr -e 210 -c 2 -i 22 -a 2 -x {1.0 3.1 21 ------- null}
+ -t 0.690000000000001 -s 1 -d 2 -p cbr -e 210 -c 2 -i 63 -a 2 -x {1.0 3.1 59 ------- null}
- -t 0.6904 -s 2 -d 3 -p cbr -e 210 -c 2 -i 29 -a 2 -x {1.0 3.1 28 ------- null}
h -t 0.6904 -s 2 -d 3 -p cbr -e 210 -c 2 -i 29 -a 2 -x {1.0 3.1 -1 ------- null}
+ -t 0.700000000000001 -s 1 -d 2 -p cbr -e 210 -c 2 -i 64 -a 2 -x {1.0 3.1 60 ------- null}
r -t 0.704 -s 1 -d 2 -p cbr -e 210 -c 2 -i 30 -a 2 -x {1.0 3.1 29 ------- null}
+ -t 0.704 -s 2 -d 3 -p cbr -e 210 -c 2 -i 30 -a 2 -x {1.0 3.1 29 ------- null}
- -t 0.7048 -s 1 -d 2 -p cbr -e 210 -c 2 -i 38 -a 2 -x {1.0 3.1 36 ------- null}
h -t 0.7048 -s 1 -d 2 -p cbr -e 210 -c 2 -i 38 -a 2 -x {1.0 3.1 -1 ------- null}
r -t 0.7064 -s 2 -d 3 -p cbr -e 210 -c 2 -i 23 -a 2 -x {1.0 3.1 22 ------- null}
- -t 0.7072 -s 2 -d 3 -p cbr -e 210 -c 2 -i 30 -a 2 -x {1.0 3.1 29 ------- null}
h -t 0.7072 -s 2 -d 3 -p cbr -e 210 -c 2 -i 30 -a 2 -x {1.0 3.1 -1 ------- null}
+ -t 0.710000000000001 -s 1 -d 2 -p cbr -e 210 -c 2 -i 65 -a 2 -x {1.0 3.1 61 ------- null}
- -t 0.7104 -s 0 -d 2 -p tcp -e 1040 -c 1 -i 56 -a 1 -x {0.0 3.0 2 ------- null}
h -t 0.7104 -s 0 -d 2 -p tcp -e 1040 -c 1 -i 56 -a 1 -x {0.0 3.0 -1 ------- null}
+ -t 0.720000000000001 -s 1 -d 2 -p cbr -e 210 -c 2 -i 66 -a 2 -x {1.0 3.1 62 ------- null}
r -t 0.7208 -s 1 -d 2 -p cbr -e 210 -c 2 -i 31 -a 2 -x {1.0 3.1 30 ------- null}
+ -t 0.7208 -s 2 -d 3 -p cbr -e 210 -c 2 -i 31 -a 2 -x {1.0 3.1 30 ------- null}
- -t 0.7216 -s 1 -d 2 -p cbr -e 210 -c 2 -i 39 -a 2 -x {1.0 3.1 37 ------- null}
h -t 0.7216 -s 1 -d 2 -p cbr -e 210 -c 2 -i 39 -a 2 -x {1.0 3.1 -1 ------- null}
r -t 0.7232 -s 2 -d 3 -p cbr -e 210 -c 2 -i 24 -a 2 -x {1.0 3.1 23 ------- null}
- -t 0.724 -s 2 -d 3 -p cbr -e 210 -c 2 -i 31 -a 2 -x {1.0 3.1 30 ------- null}
h -t 0.724 -s 2 -d 3 -p cbr -e 210 -c 2 -i 31 -a 2 -x {1.0 3.1 -1 ------- null}
+ -t 0.730000000000001 -s 1 -d 2 -p cbr -e 210 -c 2 -i 67 -a 2 -x {1.0 3.1 63 ------- null}
r -t 0.7376 -s 1 -d 2 -p cbr -e 210 -c 2 -i 32 -a 2 -x {1.0 3.1 31 ------- null}
+ -t 0.7376 -s 2 -d 3 -p cbr -e 210 -c 2 -i 32 -a 2 -x {1.0 3.1 31 ------- null}
- -t 0.7384 -s 1 -d 2 -p cbr -e 210 -c 2 -i 40 -a 2 -x {1.0 3.1 38 ------- null}
h -t 0.7384 -s 1 -d 2 -p cbr -e 210 -c 2 -i 40 -a 2 -x {1.0 3.1 -1 ------- null}
r -t 0.74 -s 2 -d 3 -p cbr -e 210 -c 2 -i 25 -a 2 -x {1.0 3.1 24 ------- null}
+ -t 0.740000000000001 -s 1 -d 2 -p cbr -e 210 -c 2 -i 68 -a 2 -x {1.0 3.1 64 ------- null}
- -t 0.7408 -s 2 -d 3 -p cbr -e 210 -c 2 -i 32 -a 2 -x {1.0 3.1 31 ------- null}
h -t 0.7408 -s 2 -d 3 -p cbr -e 210 -c 2 -i 32 -a 2 -x {1.0 3.1 -1 ------- null}
+ -t 0.750000000000001 -s 1 -d 2 -p cbr -e 210 -c 2 -i 69 -a 2 -x {1.0 3.1 65 ------- null}
r -t 0.7544 -s 1 -d 2 -p cbr -e 210 -c 2 -i 33 -a 2 -x {1.0 3.1 32 ------- null}
+ -t 0.7544 -s 2 -d 3 -p cbr -e 210 -c 2 -i 33 -a 2 -x {1.0 3.1 32 ------- null}
- -t 0.7552 -s 1 -d 2 -p cbr -e 210 -c 2 -i 41 -a 2 -x {1.0 3.1 39 ------- null}
h -t 0.7552 -s 1 -d 2 -p cbr -e 210 -c 2 -i 41 -a 2 -x {1.0 3.1 -1 ------- null}
r -t 0.7568 -s 2 -d 3 -p cbr -e 210 -c 2 -i 26 -a 2 -x {1.0 3.1 25 ------- null}
- -t 0.7576 -s 2 -d 3 -p cbr -e 210 -c 2 -i 33 -a 2 -x {1.0 3.1 32 ------- null}
h -t 0.7576 -s 2 -d 3 -p cbr -e 210 -c 2 -i 33 -a 2 -x {1.0 3.1 -1 ------- null}
+ -t 0.760000000000001 -s 1 -d 2 -p cbr -e 210 -c 2 -i 70 -a 2 -x {1.0 3.1 66 ------- null}
+ -t 0.770000000000001 -s 1 -d 2 -p cbr -e 210 -c 2 -i 71 -a 2 -x {1.0 3.1 67 ------- null}
r -t 0.7712 -s 1 -d 2 -p cbr -e 210 -c 2 -i 35 -a 2 -x {1.0 3.1 33 ------- null}
+ -t 0.7712 -s 2 -d 3 -p cbr -e 210 -c 2 -i 35 -a 2 -x {1.0 3.1 33 ------- null}
- -t 0.772 -s 1 -d 2 -p cbr -e 210 -c 2 -i 42 -a 2 -x {1.0 3.1 40 ------- null}
h -t 0.772 -s 1 -d 2 -p cbr -e 210 -c 2 -i 42 -a 2 -x {1.0 3.1 -1 ------- null}
r -t 0.7736 -s 2 -d 3 -p cbr -e 210 -c 2 -i 27 -a 2 -x {1.0 3.1 26 ------- null}
- -t 0.7744 -s 2 -d 3 -p cbr -e 210 -c 2 -i 35 -a 2 -x {1.0 3.1 33 ------- null}
h -t 0.7744 -s 2 -d 3 -p cbr -e 210 -c 2 -i 35 -a 2 -x {1.0 3.1 -1 ------- null}
+ -t 0.780000000000001 -s 1 -d 2 -p cbr -e 210 -c 2 -i 72 -a 2 -x {1.0 3.1 68 ------- null}
r -t 0.788 -s 1 -d 2 -p cbr -e 210 -c 2 -i 36 -a 2 -x {1.0 3.1 34 ------- null}
+ -t 0.788 -s 2 -d 3 -p cbr -e 210 -c 2 -i 36 -a 2 -x {1.0 3.1 34 ------- null}
- -t 0.7888 -s 1 -d 2 -p cbr -e 210 -c 2 -i 43 -a 2 -x {1.0 3.1 41 ------- null}
h -t 0.7888 -s 1 -d 2 -p cbr -e 210 -c 2 -i 43 -a 2 -x {1.0 3.1 -1 ------- null}
+ -t 0.790000000000001 -s 1 -d 2 -p cbr -e 210 -c 2 -i 73 -a 2 -x {1.0 3.1 69 ------- null}
r -t 0.7904 -s 2 -d 3 -p cbr -e 210 -c 2 -i 28 -a 2 -x {1.0 3.1 27 ------- null}
- -t 0.7912 -s 2 -d 3 -p cbr -e 210 -c 2 -i 36 -a 2 -x {1.0 3.1 34 ------- null}
h -t 0.7912 -s 2 -d 3 -p cbr -e 210 -c 2 -i 36 -a 2 -x {1.0 3.1 -1 ------- null}
+ -t 0.800000000000001 -s 1 -d 2 -p cbr -e 210 -c 2 -i 74 -a 2 -x {1.0 3.1 70 ------- null}
r -t 0.8048 -s 1 -d 2 -p cbr -e 210 -c 2 -i 37 -a 2 -x {1.0 3.1 35 ------- null}
+ -t 0.8048 -s 2 -d 3 -p cbr -e 210 -c 2 -i 37 -a 2 -x {1.0 3.1 35 ------- null}
- -t 0.8056 -s 1 -d 2 -p cbr -e 210 -c 2 -i 44 -a 2 -x {1.0 3.1 42 ------- null}
h -t 0.8056 -s 1 -d 2 -p cbr -e 210 -c 2 -i 44 -a 2 -x {1.0 3.1 -1 ------- null}
r -t 0.8072 -s 2 -d 3 -p cbr -e 210 -c 2 -i 29 -a 2 -x {1.0 3.1 28 ------- null}
- -t 0.808 -s 2 -d 3 -p cbr -e 210 -c 2 -i 37 -a 2 -x {1.0 3.1 35 ------- null}
h -t 0.808 -s 2 -d 3 -p cbr -e 210 -c 2 -i 37 -a 2 -x {1.0 3.1 -1 ------- null}
+ -t 0.810000000000001 -s 1 -d 2 -p cbr -e 210 -c 2 -i 75 -a 2 -x {1.0 3.1 71 ------- null}
r -t 0.8104 -s 0 -d 2 -p tcp -e 1040 -c 1 -i 55 -a 1 -x {0.0 3.0 1 ------- null}
+ -t 0.8104 -s 2 -d 3 -p tcp -e 1040 -c 1 -i 55 -a 1 -x {0.0 3.0 1 ------- null}
+ -t 0.820000000000001 -s 1 -d 2 -p cbr -e 210 -c 2 -i 76 -a 2 -x {1.0 3.1 72 ------- null}
r -t 0.8216 -s 1 -d 2 -p cbr -e 210 -c 2 -i 38 -a 2 -x {1.0 3.1 36 ------- null}
+ -t 0.8216 -s 2 -d 3 -p cbr -e 210 -c 2 -i 38 -a 2 -x {1.0 3.1 36 ------- null}
- -t 0.8224 -s 1 -d 2 -p cbr -e 210 -c 2 -i 45 -a 2 -x {1.0 3.1 43 ------- null}
h -t 0.8224 -s 1 -d 2 -p cbr -e 210 -c 2 -i 45 -a 2 -x {1.0 3.1 -1 ------- null}